 *******************************************************************************
 ** Site#:    0         For non-commercial use only    Version 20.173L 64BITS **
 *******************************************************************************
 ** Cite this program as: MOPAC2016, Version: 20.173L, James J. P. Stewart,   **
 ** Stewart Computational Chemistry, web-site: HTTP://OpenMOPAC.net.          **
 *******************************************************************************
 **                                                                           **
 **                                MOPAC2016                                  **
 **                                                                           **
 *******************************************************************************

                              INDO CALCULATION RESULTS

 *******************************************************************************
 *  CALCULATION DONE:                                Mon Jun 29 13:00:48 2020  *
 *  INDO       - The INDO Hamiltonian to be used
 *  CISD       - C.I. USES 1 AND 2 ELECTRON EXCITATIONS
 * C.I.=(N,M)- 20 DOUBLY FILLED LEVELS USED IN A
 *             C.I. INVOLVING 40 M.O.'S
 * C.I.D.=(N,M)-  3 DOUBLY FILLED LEVELS USED IN A
 *             CI DOUBLES INVOLVING  6 M.O.'S
 *  T=         - A TIME OF 172800.0 SECONDS REQUESTED
 *  DUMP=N     - RESTART FILE WRITTEN EVERY 7200.0 SECONDS REQUESTED
 *******************************************************************************
INDO CISD C.I.=(40,20) C.I.D.=(6,3)
 Ag20

   ATOM   CHEMICAL          X               Y               Z
  NUMBER   SYMBOL      (ANGSTROMS)     (ANGSTROMS)     (ANGSTROMS)
 
     1      Ag         -4.18425000  *  -2.41578000  *  -1.70821000  *
     2      Ag         -1.38662000  *  -2.52547000  *  -1.78578000  *
     3      Ag          1.38662000  *  -2.52547000  *  -1.78578000  *
     4      Ag          4.18425000  *  -2.41578000  *  -1.70821000  *
     5      Ag         -2.88043000  *   0.06189000  *  -1.78578000  *
     6      Ag          0.00000000  *   0.00000000  *  -1.89153000  *
     7      Ag          2.88043000  *   0.06189000  *  -1.78578000  *
     8      Ag         -1.49381000  *   2.46358000  *  -1.78578000  *
     9      Ag          1.49381000  *   2.46358000  *  -1.78578000  *
    10      Ag          0.00000000  *   4.83155000  *  -1.70821000  *
    11      Ag         -2.88043000  *  -1.66302000  *   0.65361000  *
    12      Ag          0.00000000  *  -1.78335000  *   0.63051000  *
    13      Ag          2.88043000  *  -1.66302000  *   0.65361000  *
    14      Ag         -1.54443000  *   0.89167000  *   0.63051000  *
    15      Ag          1.54443000  *   0.89167000  *   0.63051000  *
    16      Ag          0.00000000  *   3.32604000  *   0.65361000  *
    17      Ag         -1.49381000  *  -0.86245000  *   2.91795000  *
    18      Ag          1.49381000  *  -0.86245000  *   2.91795000  *
    19      Ag          0.00000000  *   1.72491000  *   2.91795000  *
    20      Ag          0.00000000  *   0.00000000  *   5.12463000  *
 


          CARTESIAN COORDINATES 

    NO.       ATOM           X           Y           Z

     1        Ag         -4.1842     -2.4158     -1.7082
     2        Ag         -1.3866     -2.5255     -1.7858
     3        Ag          1.3866     -2.5255     -1.7858
     4        Ag          4.1842     -2.4158     -1.7082
     5        Ag         -2.8804      0.0619     -1.7858
     6        Ag          0.0000      0.0000     -1.8915
     7        Ag          2.8804      0.0619     -1.7858
     8        Ag         -1.4938      2.4636     -1.7858
     9        Ag          1.4938      2.4636     -1.7858
    10        Ag          0.0000      4.8316     -1.7082
    11        Ag         -2.8804     -1.6630      0.6536
    12        Ag          0.0000     -1.7833      0.6305
    13        Ag          2.8804     -1.6630      0.6536
    14        Ag         -1.5444      0.8917      0.6305
    15        Ag          1.5444      0.8917      0.6305
    16        Ag          0.0000      3.3260      0.6536
    17        Ag         -1.4938     -0.8625      2.9180
    18        Ag          1.4938     -0.8625      2.9180
    19        Ag          0.0000      1.7249      2.9180
    20        Ag          0.0000      0.0000      5.1246

           Empirical Formula: Ag20  =    20 atoms



      MOLECULAR POINT GROUP   :   Td  


      RHF CALCULATION, NO. OF DOUBLY OCCUPIED LEVELS = 110

 WARNING: INDO only performs single-point calculations

 Summary of symmetry occupancy in each shell:

 SHELL     
    1  110
    v   70
 TOTAL 180




    ROOT NO.    1           2           3           4           5           6

           -18.94750   -16.33409   -16.33332   -16.33324   -15.50241   -15.50225
  
  
  S Ag   1   0.05359    -0.01463    -0.05473    -0.08010    -0.00021    -0.00024
 PX Ag   1   0.03361    -0.01249    -0.04671    -0.05073    -0.00019    -0.01734
 PY Ag   1   0.01940    -0.01333    -0.01044    -0.03947    -0.01726     0.01959
 PZ Ag   1   0.01372     0.01142    -0.01294    -0.02787     0.02413     0.01388
 Z2 Ag   1  -0.01997     0.04182     0.04436     0.04693     0.07197     0.04174
 X2 Ag   1   0.02307    -0.00401    -0.07977    -0.04274     0.04130    -0.07401
 XY Ag   1   0.03996    -0.03624    -0.05900    -0.12279    -0.02630     0.04091
 XZ Ag   1   0.02823     0.01481    -0.05242    -0.08661     0.03590     0.02890
 YZ Ag   1   0.01630     0.00599    -0.02336    -0.05434     0.02913     0.00212
  
  S Ag   2   0.15222    -0.03953    -0.14799    -0.10422    -0.00014    -0.05841
 PX Ag   2   0.03065    -0.00315    -0.01186     0.05388     0.00019    -0.05808
 PY Ag   2   0.08388    -0.04504    -0.07262    -0.08194     0.01106    -0.01625
 PZ Ag   2   0.05930     0.01889    -0.06489    -0.05790    -0.01586    -0.01124
 Z2 Ag   2  -0.02375     0.07586     0.05038     0.00467    -0.05805     0.11350
 X2 Ag   2  -0.02149     0.02080    -0.05688     0.08289    -0.03382    -0.18128
 XY Ag   2   0.03220    -0.02259    -0.02082     0.10849     0.02006    -0.12844
 XZ Ag   2   0.02274     0.01776    -0.02365     0.07645    -0.02744    -0.09003
 YZ Ag   2   0.08878    -0.00132    -0.10053    -0.12924    -0.02388    -0.01993
  
  S Ag   3   0.15222    -0.03953    -0.14799     0.10422     0.00014    -0.05841
 PX Ag   3  -0.03065     0.00315     0.01186     0.05388     0.00019     0.05808
 PY Ag   3   0.08388    -0.04504    -0.07262     0.08194    -0.01106    -0.01625
 PZ Ag   3   0.05930     0.01889    -0.06489     0.05790     0.01586    -0.01124
 Z2 Ag   3  -0.02375     0.07586     0.05038    -0.00467     0.05805     0.11350
 X2 Ag   3  -0.02149     0.02080    -0.05688    -0.08289     0.03382    -0.18128
 XY Ag   3  -0.03220     0.02259     0.02082     0.10849     0.02006     0.12844
 XZ Ag   3  -0.02274    -0.01776     0.02365     0.07645    -0.02744     0.09003
 YZ Ag   3   0.08878    -0.00132    -0.10053     0.12924     0.02388    -0.01993
  
  S Ag   4   0.05359    -0.01463    -0.05473     0.08010     0.00021    -0.00024
 PX Ag   4  -0.03361     0.01249     0.04671    -0.05073    -0.00019     0.01734
 PY Ag   4   0.01940    -0.01333    -0.01044     0.03947     0.01726     0.01959
 PZ Ag   4   0.01372     0.01142    -0.01294     0.02787    -0.02413     0.01388
 Z2 Ag   4  -0.01997     0.04182     0.04436    -0.04693    -0.07197     0.04174
 X2 Ag   4   0.02307    -0.00401    -0.07977     0.04274    -0.04130    -0.07401
 XY Ag   4  -0.03996     0.03624     0.05900    -0.12279    -0.02630    -0.04091
 XZ Ag   4  -0.02823    -0.01481     0.05242    -0.08661     0.03590    -0.02890
 YZ Ag   4   0.01630     0.00599    -0.02336     0.05434    -0.02913     0.00212
  
  S Ag   5   0.15222    -0.07331    -0.05670    -0.16047    -0.05074     0.02873
 PX Ag   5   0.08797    -0.05361    -0.03359    -0.06574    -0.03256     0.02987
 PY Ag   5  -0.01541     0.00259     0.07253     0.05902    -0.03939     0.01669
 PZ Ag   5   0.05931     0.00123    -0.01715    -0.08740    -0.01782    -0.00832
 Z2 Ag   5  -0.02375     0.08537     0.02468     0.02040     0.06892    -0.10710
 X2 Ag   5   0.03863    -0.03522     0.02473     0.04371    -0.00109     0.04037
 XY Ag   5  -0.00251    -0.06147     0.12468     0.01248    -0.20162     0.09395
 XZ Ag   5   0.08822    -0.01976    -0.02424    -0.11934    -0.07175     0.00137
 YZ Ag   5  -0.02458    -0.01166     0.10448     0.08438    -0.06561     0.02408
  
  S Ag   6   0.28972    -0.16398    -0.06062     0.00000    -0.00000     0.00003
 PX Ag   6   0.00000     0.00000     0.00000     0.15916     0.07158    -0.00000
 PY Ag   6   0.00000    -0.05520     0.14929    -0.00000     0.00000     0.07156
 PZ Ag   6   0.14961    -0.04266    -0.01577     0.00000     0.00000     0.00004
 Z2 Ag   6   0.01394     0.17128     0.06340    -0.00000     0.00000     0.00012
 X2 Ag   6   0.00000     0.03591    -0.09715     0.00000     0.00000     0.30875
 XY Ag   6   0.00000    -0.00000    -0.00000    -0.10348     0.30974    -0.00000
 XZ Ag   6  -0.00000     0.00000     0.00000     0.29450     0.10185    -0.00000
 YZ Ag   6  -0.00001    -0.10206     0.27618    -0.00000     0.00000     0.10151
  
  S Ag   7   0.15222    -0.07331    -0.05670     0.16047     0.05074     0.02873
 PX Ag   7  -0.08797     0.05361     0.03359    -0.06574    -0.03256    -0.02987
 PY Ag   7  -0.01541     0.00259     0.07253    -0.05902     0.03939     0.01669
 PZ Ag   7   0.05931     0.00123    -0.01715     0.08740     0.01782    -0.00832
 Z2 Ag   7  -0.02375     0.08537     0.02468    -0.02040    -0.06892    -0.10710
 X2 Ag   7   0.03863    -0.03522     0.02473    -0.04371     0.00109     0.04037
 XY Ag   7   0.00251     0.06147    -0.12468     0.01248    -0.20162    -0.09395
 XZ Ag   7  -0.08822     0.01976     0.02424    -0.11934    -0.07175    -0.00137
 YZ Ag   7  -0.02458    -0.01166     0.10448    -0.08438     0.06561     0.02408
  
  S Ag   8   0.15222    -0.13595     0.11266    -0.05623    -0.05052     0.02956
 PX Ag   8   0.05732    -0.08787     0.07950     0.01394     0.00835    -0.01544
 PY Ag   8  -0.06849     0.04173     0.00206     0.03311     0.05361    -0.02421
 PZ Ag   8   0.05931    -0.03362     0.07702    -0.02946    -0.00190     0.01950
 Z2 Ag   8  -0.02375     0.08809     0.01714     0.01579     0.12719    -0.00644
 X2 Ag   8  -0.01714    -0.01046     0.09964     0.10273     0.17555    -0.10037
 XY Ag   8  -0.03471     0.01029     0.01247    -0.04914    -0.06053     0.08053
 XZ Ag   8   0.06543    -0.08995     0.14111     0.01721     0.02810    -0.00795
 YZ Ag   8  -0.06399     0.02176    -0.02805     0.06280     0.05893    -0.07484
  
  S Ag   9   0.15222    -0.13595     0.11266     0.05623     0.05052     0.02956
 PX Ag   9  -0.05732     0.08787    -0.07950     0.01394     0.00835     0.01544
 PY Ag   9  -0.06849     0.04173     0.00206    -0.03311    -0.05361    -0.02421
 PZ Ag   9   0.05931    -0.03362     0.07702     0.02946     0.00190     0.01950
 Z2 Ag   9  -0.02375     0.08809     0.01714    -0.01579    -0.12719    -0.00644
 X2 Ag   9  -0.01714    -0.01046     0.09963    -0.10273    -0.17555    -0.10037
 XY Ag   9   0.03471    -0.01029    -0.01247    -0.04914    -0.06053    -0.08053
 XZ Ag   9  -0.06543     0.08995    -0.14111     0.01721     0.02810     0.00795
 YZ Ag   9  -0.06399     0.02176    -0.02805    -0.06280    -0.05893    -0.07484
  
  S Ag  10   0.05359    -0.06277     0.07543    -0.00000     0.00000     0.00045
 PX Ag  10   0.00000     0.00000     0.00000     0.01763     0.02966    -0.00000
 PY Ag  10  -0.03881     0.05575    -0.05780     0.00000    -0.00000    -0.01038
 PZ Ag  10   0.01373    -0.00536     0.03240    -0.00000    -0.00000    -0.02777
 Z2 Ag  10  -0.01997     0.06999    -0.03187     0.00000    -0.00000    -0.08325
 X2 Ag  10  -0.04614     0.11011    -0.11655     0.00000    -0.00000    -0.00304
 XY Ag  10  -0.00000    -0.00000    -0.00000    -0.04876    -0.09776     0.00000
 XZ Ag  10   0.00000     0.00000     0.00000     0.00741    -0.01458     0.00000
 YZ Ag  10  -0.03260     0.04560    -0.10900     0.00000     0.00000     0.05218
  
  S Ag  11   0.15221     0.03526    -0.08573    -0.16043     0.05055     0.02910
 PX Ag  11   0.08796     0.02970    -0.05588    -0.06578     0.03274     0.03030
 PY Ag  11   0.05079     0.00229     0.00795    -0.06274     0.03018    -0.00220
 PZ Ag  11  -0.03430     0.03521     0.06524     0.08477     0.03153     0.01845
 Z2 Ag  11  -0.00841    -0.04660    -0.07047    -0.08641    -0.01587    -0.00963
 X2 Ag  11   0.04751     0.05161    -0.07390    -0.01807     0.03282     0.09801
 XY Ag  11   0.08229     0.04331    -0.00322    -0.10811     0.13547     0.03283
 XZ Ag  11  -0.03175     0.10709     0.08330     0.05154     0.16578     0.08817
 YZ Ag  11  -0.01834     0.06863     0.02995     0.04104     0.08822     0.06467
  
  S Ag  12   0.28972     0.11182    -0.13439     0.00000     0.00000     0.00087
 PX Ag  12   0.00000     0.00000     0.00000     0.15922    -0.07186     0.00000
 PY Ag  12   0.14106     0.06813     0.00097    -0.00000     0.00000     0.02392
 PZ Ag  12  -0.04988     0.10564     0.10766    -0.00000     0.00000     0.06749
 Z2 Ag  12  -0.00459    -0.02277    -0.09812     0.00000    -0.00000    -0.29350
 X2 Ag  12  -0.01070    -0.02522    -0.20417     0.00000     0.00000     0.14152
 XY Ag  12  -0.00000     0.00000     0.00000     0.24290    -0.20055     0.00000
 XZ Ag  12   0.00000    -0.00000    -0.00000    -0.19538    -0.25815     0.00000
 YZ Ag  12  -0.00759     0.26512     0.09094    -0.00000    -0.00000    -0.01710
  
  S Ag  13   0.15221     0.03526    -0.08572     0.16043    -0.05055     0.02910
 PX Ag  13  -0.08796    -0.02970     0.05588    -0.06578     0.03274    -0.03030
 PY Ag  13   0.05079     0.00229     0.00795     0.06274    -0.03018    -0.00220
 PZ Ag  13  -0.03430     0.03521     0.06524    -0.08477    -0.03153     0.01845
 Z2 Ag  13  -0.00841    -0.04660    -0.07047     0.08641     0.01587    -0.00963
 X2 Ag  13   0.04751     0.05161    -0.07390     0.01807    -0.03282     0.09801
 XY Ag  13  -0.08229    -0.04331     0.00322    -0.10811     0.13547    -0.03283
 XZ Ag  13   0.03175    -0.10709    -0.08330     0.05154     0.16578    -0.08817
 YZ Ag  13  -0.01834     0.06863     0.02995    -0.04104    -0.08822     0.06467
  
  S Ag  14   0.28972     0.02609     0.09753    -0.14283     0.00034    -0.00041
 PX Ag  14   0.12215     0.02488     0.09322     0.02277    -0.00002    -0.04146
 PY Ag  14  -0.07053    -0.06956     0.09550     0.07877    -0.04145    -0.04798
 PZ Ag  14  -0.04987     0.13914     0.01718     0.05574     0.05852    -0.03373
 Z2 Ag  14  -0.00459    -0.06652     0.02017    -0.07290    -0.25477     0.14676
 X2 Ag  14   0.00535    -0.00300     0.14435     0.18430    -0.14805    -0.11549
 XY Ag  14  -0.00927    -0.14052     0.14446    -0.07634     0.05577    -0.14866
 XZ Ag  14  -0.00655     0.25582     0.00710    -0.05413    -0.07825    -0.10547
 YZ Ag  14   0.00378    -0.07945    -0.18762    -0.08181    -0.10450    -0.19903
  
  S Ag  15   0.28972     0.02609     0.09753     0.14283    -0.00034    -0.00041
 PX Ag  15  -0.12215    -0.02488    -0.09322     0.02277    -0.00002     0.04146
 PY Ag  15  -0.07053    -0.06956     0.09550    -0.07877     0.04145    -0.04798
 PZ Ag  15  -0.04987     0.13914     0.01718    -0.05574    -0.05852    -0.03373
 Z2 Ag  15  -0.00459    -0.06652     0.02017     0.07290     0.25477     0.14676
 X2 Ag  15   0.00535    -0.00300     0.14435    -0.18430     0.14805    -0.11549
 XY Ag  15   0.00927     0.14052    -0.14446    -0.07634     0.05577     0.14866
 XZ Ag  15   0.00655    -0.25582    -0.00710    -0.05413    -0.07825     0.10547
 YZ Ag  15   0.00378    -0.07945    -0.18762     0.08181     0.10450    -0.19903
  
  S Ag  16   0.15222    -0.06110     0.17497    -0.00000    -0.00000    -0.05826
 PX Ag  16   0.00000     0.00000     0.00000     0.04290    -0.01954     0.00000
 PY Ag  16  -0.10157     0.02614    -0.09905     0.00000     0.00000     0.05034
 PZ Ag  16  -0.03430     0.08624    -0.07257     0.00000    -0.00000    -0.03672
 Z2 Ag  16  -0.00840    -0.09855     0.07006    -0.00000     0.00000     0.01938
 X2 Ag  16  -0.09501    -0.00175    -0.12699     0.00000     0.00000     0.15474
 XY Ag  16   0.00000    -0.00000    -0.00000    -0.07683     0.07865    -0.00000
 XZ Ag  16   0.00000    -0.00000    -0.00000    -0.01942     0.01360    -0.00000
 YZ Ag  16   0.03665    -0.16618     0.01871    -0.00000     0.00000     0.21671
  
  S Ag  17   0.15221     0.17404     0.02978    -0.05622     0.05070     0.02950
 PX Ag  17   0.05732     0.11584     0.02503     0.01391    -0.00822    -0.01563
 PY Ag  17   0.03309     0.05202     0.05464    -0.01670    -0.01578     0.01002
 PZ Ag  17  -0.08436    -0.05567     0.00466     0.04105    -0.05138    -0.02975
 Z2 Ag  17   0.05602    -0.00473    -0.07470    -0.11857     0.21001     0.12147
 X2 Ag  17   0.02889     0.09524     0.00403     0.02523     0.01839    -0.02762
 XY Ag  17   0.05003     0.13861     0.07814    -0.00016    -0.00669     0.01834
 XZ Ag  17  -0.05452    -0.05189    -0.01060    -0.05187     0.06586     0.07758
 YZ Ag  17  -0.03150    -0.00709    -0.06797     0.00807     0.07763    -0.02356
  
  S Ag  18   0.15221     0.17404     0.02978     0.05622    -0.05070     0.02950
 PX Ag  18  -0.05732    -0.11584    -0.02503     0.01391    -0.00822     0.01563
 PY Ag  18   0.03309     0.05202     0.05464     0.01670     0.01578     0.01002
 PZ Ag  18  -0.08436    -0.05567     0.00466    -0.04105     0.05138    -0.02975
 Z2 Ag  18   0.05602    -0.00473    -0.07470     0.11857    -0.21001     0.12147
 X2 Ag  18   0.02889     0.09524     0.00403    -0.02523    -0.01839    -0.02762
 XY Ag  18  -0.05003    -0.13861    -0.07814    -0.00016    -0.00669    -0.01834
 XZ Ag  18   0.05452     0.05189     0.01060    -0.05187     0.06586    -0.07758
 YZ Ag  18  -0.03150    -0.00709    -0.06797    -0.00807    -0.07763    -0.02356
  
  S Ag  19   0.15221     0.14035     0.12108    -0.00000    -0.00000    -0.05870
 PX Ag  19   0.00000     0.00000     0.00000     0.04287     0.01920    -0.00000
 PY Ag  19  -0.06618    -0.12854    -0.04297     0.00000    -0.00000    -0.01729
 PZ Ag  19  -0.08436    -0.03108    -0.06199     0.00000     0.00000     0.05961
 Z2 Ag  19   0.05601    -0.07580     0.11785    -0.00000    -0.00000    -0.24323
 X2 Ag  19  -0.05778    -0.17510    -0.04945     0.00000     0.00000     0.00342
 XY Ag  19   0.00000    -0.00000    -0.00000    -0.04385    -0.03850     0.00000
 XZ Ag  19   0.00000    -0.00000    -0.00000    -0.06607    -0.06893     0.00000
 YZ Ag  19   0.06294     0.07297    -0.02337     0.00000     0.00000     0.10999
  
  S Ag  20   0.05358     0.09205     0.03404    -0.00000    -0.00000     0.00012
 PX Ag  20   0.00000     0.00000     0.00000     0.01761    -0.02967     0.00000
 PY Ag  20  -0.00000    -0.00609     0.01651    -0.00000    -0.00000    -0.02972
 PZ Ag  20  -0.04116    -0.07971    -0.02947     0.00000     0.00000    -0.00012
 Z2 Ag  20   0.05997     0.19523     0.07221    -0.00000    -0.00000     0.00035
 X2 Ag  20  -0.00000     0.00321    -0.00870     0.00000     0.00000     0.04604
 XY Ag  20  -0.00000    -0.00000    -0.00000    -0.00928     0.04604    -0.00000
 XZ Ag  20  -0.00000    -0.00000    -0.00000    -0.04837     0.08722    -0.00000
 YZ Ag  20  -0.00000     0.01674    -0.04538     0.00000     0.00000     0.08723




    ROOT NO.    7           8           9          10          11          12

           -15.40306   -15.36032   -15.35947   -15.35906   -15.09436   -15.09353
  
  
  S Ag   1   0.06661    -0.00904     0.02712     0.03829    -0.01478    -0.05982
 PX Ag   1   0.05603    -0.00625     0.01768     0.04875    -0.01647    -0.03647
 PY Ag   1   0.03219     0.00453     0.03296     0.01434    -0.01715    -0.03855
 PZ Ag   1   0.02204    -0.02487     0.01528     0.01017     0.02253    -0.02720
 Z2 Ag   1  -0.06502    -0.02483    -0.03473    -0.07068     0.11521     0.02927
 X2 Ag   1   0.07406    -0.02347     0.00158     0.09783     0.00081    -0.00456
 XY Ag   1   0.12753    -0.00362     0.10641     0.10683    -0.06067    -0.14998
 XZ Ag   1   0.08843    -0.05844     0.05898     0.07530     0.05586    -0.10516
 YZ Ag   1   0.05109    -0.02904     0.04744     0.03547     0.03096    -0.06412
  
  S Ag   2   0.05241     0.00672    -0.02939     0.07405    -0.01795     0.00871
 PX Ag   2  -0.03183     0.02106    -0.07416    -0.05236    -0.00487     0.03652
 PY Ag   2   0.00352     0.02522    -0.00947     0.05278     0.01415     0.00911
 PZ Ag   2   0.00166    -0.02686    -0.01904     0.03716    -0.00976     0.00670
 Z2 Ag   2  -0.08750    -0.08504    -0.00094    -0.02917     0.01384     0.04000
 X2 Ag   2   0.15505    -0.03821    -0.06113     0.02490    -0.13125    -0.10127
 XY Ag   2  -0.14056     0.07123    -0.23247    -0.08472     0.07727     0.10010
 XZ Ag   2  -0.09856     0.04197    -0.16506    -0.05968    -0.07306     0.07016
 YZ Ag   2  -0.01071    -0.03746     0.00604     0.03543    -0.00909     0.04735
  
  S Ag   3   0.05241     0.00672    -0.02939    -0.07405    -0.01795    -0.00871
 PX Ag   3   0.03183    -0.02106     0.07416    -0.05236     0.00487     0.03652
 PY Ag   3   0.00352     0.02522    -0.00947    -0.05278     0.01415    -0.00911
 PZ Ag   3   0.00166    -0.02686    -0.01904    -0.03716    -0.00976    -0.00670
 Z2 Ag   3  -0.08750    -0.08504    -0.00094     0.02917     0.01384    -0.04000
 X2 Ag   3   0.15505    -0.03821    -0.06113    -0.02490    -0.13125     0.10127
 XY Ag   3   0.14056    -0.07123     0.23247    -0.08472    -0.07727     0.10010
 XZ Ag   3   0.09856    -0.04197     0.16506    -0.05968     0.07306     0.07016
 YZ Ag   3  -0.01071    -0.03746     0.00604    -0.03543    -0.00909    -0.04735
  
  S Ag   4   0.06661    -0.00904     0.02712    -0.03829    -0.01478     0.05982
 PX Ag   4  -0.05603     0.00625    -0.01768     0.04875     0.01647    -0.03647
 PY Ag   4   0.03219     0.00453     0.03296    -0.01434    -0.01715     0.03855
 PZ Ag   4   0.02204    -0.02487     0.01528    -0.01017     0.02253     0.02720
 Z2 Ag   4  -0.06502    -0.02483    -0.03473     0.07068     0.11521    -0.02927
 X2 Ag   4   0.07406    -0.02347     0.00158    -0.09783     0.00081     0.00456
 XY Ag   4  -0.12753     0.00362    -0.10641     0.10683     0.06067    -0.14998
 XZ Ag   4  -0.08843     0.05844    -0.05898     0.07530    -0.05586    -0.10516
 YZ Ag   4   0.05109    -0.02904     0.04744    -0.03547     0.03096     0.06412
  
  S Ag   5   0.05169     0.04138     0.06741     0.01516    -0.03556    -0.03160
 PX Ag   5  -0.01331     0.05403     0.01532    -0.01741     0.00400     0.01271
 PY Ag   5  -0.02950     0.01198    -0.04173    -0.08237    -0.02174     0.00333
 PZ Ag   5   0.00114    -0.00227     0.04939    -0.00471    -0.00500     0.01750
 Z2 Ag   5  -0.08760    -0.07867     0.01616    -0.04028     0.06643     0.16031
 X2 Ag   5  -0.20000     0.12253    -0.05403    -0.15746     0.14823     0.17225
 XY Ag   5   0.06245     0.07676     0.03843    -0.14675    -0.14143    -0.18972
 XZ Ag   5  -0.05978     0.02794     0.03098    -0.06606    -0.03532     0.09791
 YZ Ag   5  -0.08119     0.09501    -0.03515    -0.13739    -0.04588     0.06729
  
  S Ag   6  -0.02303     0.10590    -0.03821     0.00000     0.03459     0.00000
 PX Ag   6   0.00000     0.00000     0.00000     0.03244     0.00000    -0.01226
 PY Ag   6  -0.00024     0.01107     0.03092    -0.00000     0.00318    -0.00000
 PZ Ag   6  -0.03230     0.01409    -0.00531     0.00000     0.00375     0.00000
 Z2 Ag   6   0.02595    -0.21236     0.07629    -0.00000    -0.08481    -0.00000
 X2 Ag   6  -0.00208     0.10780     0.30179    -0.00000    -0.05493     0.00000
 XY Ag   6   0.00000     0.00000     0.00000     0.31899    -0.00000     0.21925
 XZ Ag   6   0.00000     0.00000     0.00000     0.09454     0.00000    -0.11287
 YZ Ag   6  -0.00065     0.03205     0.08918    -0.00000     0.02869    -0.00000
  
  S Ag   7   0.05169     0.04138     0.06741    -0.01516    -0.03556     0.03160
 PX Ag   7   0.01331    -0.05403    -0.01532    -0.01741    -0.00400     0.01271
 PY Ag   7  -0.02950     0.01198    -0.04173     0.08237    -0.02174    -0.00333
 PZ Ag   7   0.00114    -0.00227     0.04939     0.00471    -0.00500    -0.01750
 Z2 Ag   7  -0.08760    -0.07867     0.01616     0.04028     0.06643    -0.16031
 X2 Ag   7  -0.20000     0.12253    -0.05403     0.15746     0.14823    -0.17225
 XY Ag   7  -0.06245    -0.07676    -0.03843    -0.14675     0.14143    -0.18972
 XZ Ag   7   0.05978    -0.02794    -0.03098    -0.06606     0.03532     0.09791
 YZ Ag   7  -0.08119     0.09501    -0.03515     0.13739    -0.04588    -0.06729
  
  S Ag   8   0.05248    -0.00182    -0.05323    -0.05895    -0.03199    -0.04047
 PX Ag   8   0.01964    -0.02524    -0.07324    -0.00928     0.01597     0.01380
 PY Ag   8   0.02645    -0.06381    -0.02310     0.03730    -0.00862     0.02346
 PZ Ag   8   0.00157    -0.02402    -0.01115    -0.04196    -0.00213     0.01066
 Z2 Ag   8  -0.08783    -0.06183     0.06365    -0.01125     0.08444     0.11983
 X2 Ag   8   0.04653    -0.16306    -0.10505     0.14494     0.03222     0.11438
 XY Ag   8   0.20505    -0.10492    -0.03740    -0.00097    -0.26000    -0.10635
 XZ Ag   8   0.04149    -0.10415    -0.05262     0.02579     0.02464    -0.01541
 YZ Ag   8   0.09246    -0.09154    -0.06476     0.09141     0.01603    -0.03345
  
  S Ag   9   0.05248    -0.00182    -0.05323     0.05895    -0.03199     0.04047
 PX Ag   9  -0.01964     0.02524     0.07324    -0.00928    -0.01597     0.01380
 PY Ag   9   0.02645    -0.06381    -0.02310    -0.03730    -0.00862    -0.02346
 PZ Ag   9   0.00157    -0.02402    -0.01115     0.04196    -0.00213    -0.01066
 Z2 Ag   9  -0.08783    -0.06183     0.06365     0.01125     0.08444    -0.11983
 X2 Ag   9   0.04653    -0.16306    -0.10505    -0.14494     0.03222    -0.11438
 XY Ag   9  -0.20505     0.10492     0.03740    -0.00097     0.26000    -0.10635
 XZ Ag   9  -0.04149     0.10415     0.05262     0.02579    -0.02464    -0.01541
 YZ Ag   9   0.09246    -0.09154    -0.06476    -0.09141     0.01603     0.03345
  
  S Ag  10   0.06697    -0.03128    -0.03495     0.00000    -0.04125     0.00000
 PX Ag  10   0.00000     0.00000     0.00000     0.02394    -0.00000     0.03040
 PY Ag  10  -0.06511     0.03187     0.04833    -0.00000     0.04543    -0.00000
 PZ Ag  10   0.02217    -0.03087    -0.00136     0.00000     0.01059     0.00000
 Z2 Ag  10  -0.06578     0.01620     0.07953    -0.00000     0.12847     0.00000
 X2 Ag  10  -0.14889     0.09712     0.13675    -0.00000     0.11094    -0.00000
 XY Ag  10  -0.00000    -0.00000    -0.00000    -0.06271     0.00000    -0.14229
 XZ Ag  10   0.00000     0.00000     0.00000     0.01416    -0.00000     0.00588
 YZ Ag  10  -0.10291     0.11351     0.06018    -0.00000    -0.00949    -0.00000
  
  S Ag  11   0.04926    -0.07196     0.03560     0.01539     0.04023    -0.03156
 PX Ag  11  -0.01545    -0.05341    -0.01454    -0.01720     0.01332     0.01260
 PY Ag  11  -0.00915    -0.01810     0.02713    -0.03170     0.01212     0.01721
 PZ Ag  11  -0.02804     0.01977    -0.05369    -0.07581     0.02991    -0.00282
 Z2 Ag  11   0.23058     0.06513     0.10643     0.20970     0.04303    -0.22136
 X2 Ag  11  -0.02151    -0.06682    -0.07732    -0.01295     0.01881    -0.04854
 XY Ag  11  -0.03830    -0.06431     0.00908    -0.11057     0.08173     0.02780
 XZ Ag  11   0.07543    -0.06969    -0.01159    -0.11534     0.10478    -0.21127
 YZ Ag  11   0.04387    -0.05877    -0.05821    -0.03541     0.07520    -0.08858
  
  S Ag  12  -0.02640    -0.06988    -0.08687     0.00000    -0.02029     0.00000
 PX Ag  12   0.00000     0.00000     0.00000     0.03205     0.00000    -0.01216
 PY Ag  12  -0.03136    -0.01567    -0.00395     0.00000    -0.00536     0.00000
 PZ Ag  12   0.00997    -0.02083     0.02345    -0.00000    -0.00910    -0.00000
 Z2 Ag  12  -0.00190     0.18125    -0.24682     0.00000    -0.10765    -0.00000
 X2 Ag  12  -0.02961    -0.22298    -0.04021     0.00000     0.09175     0.00000
 XY Ag  12   0.00000     0.00000     0.00000     0.19452     0.00000    -0.03083
 XZ Ag  12   0.00000     0.00000     0.00000     0.26716    -0.00000     0.24525
 YZ Ag  12  -0.01681    -0.05735    -0.11207     0.00000    -0.15849    -0.00000
  
  S Ag  13   0.04926    -0.07196     0.03560    -0.01539     0.04023     0.03156
 PX Ag  13   0.01545     0.05341     0.01454    -0.01720    -0.01332     0.01260
 PY Ag  13  -0.00915    -0.01810     0.02713     0.03170     0.01212    -0.01721
 PZ Ag  13  -0.02804     0.01977    -0.05369     0.07581     0.02991     0.00282
 Z2 Ag  13   0.23058     0.06513     0.10643    -0.20970     0.04303     0.22136
 X2 Ag  13  -0.02151    -0.06682    -0.07732     0.01295     0.01881     0.04854
 XY Ag  13   0.03830     0.06431    -0.00908    -0.11057    -0.08173     0.02780
 XZ Ag  13  -0.07543     0.06969     0.01159    -0.11534    -0.10478    -0.21127
 YZ Ag  13   0.04387    -0.05877    -0.05821     0.03541     0.07520     0.08858
  
  S Ag  14  -0.02751    -0.01655     0.06165    -0.09105    -0.00720     0.02950
 PX Ag  14  -0.02723    -0.00510     0.02017     0.00137    -0.00255    -0.00180
 PY Ag  14   0.01557     0.01370     0.01825     0.01770     0.00475    -0.00602
 PZ Ag  14   0.01014    -0.02846     0.00227     0.01271    -0.01112    -0.00442
 Z2 Ag  14  -0.00399     0.26790    -0.00495    -0.14718    -0.11053    -0.00585
 X2 Ag  14   0.01449     0.13197     0.07711     0.13351    -0.06201    -0.06413
 XY Ag  14  -0.02703    -0.11503     0.18241    -0.03663     0.12212     0.08053
 XZ Ag  14  -0.01648     0.04438     0.16469    -0.02627    -0.16574     0.05758
 YZ Ag  14   0.00778     0.06464     0.15631     0.16964     0.03355     0.10947
  
  S Ag  15  -0.02751    -0.01655     0.06165     0.09105    -0.00720    -0.02950
 PX Ag  15   0.02723     0.00510    -0.02017     0.00137     0.00255    -0.00180
 PY Ag  15   0.01557     0.01370     0.01825    -0.01770     0.00475     0.00602
 PZ Ag  15   0.01014    -0.02846     0.00227    -0.01271    -0.01112     0.00442
 Z2 Ag  15  -0.00399     0.26790    -0.00495     0.14718    -0.11053     0.00585
 X2 Ag  15   0.01449     0.13197     0.07711    -0.13351    -0.06201     0.06413
 XY Ag  15   0.02703     0.11503    -0.18241    -0.03663    -0.12212     0.08053
 XZ Ag  15   0.01648    -0.04438    -0.16469    -0.02627     0.16574     0.05758
 YZ Ag  15   0.00778     0.06464     0.15631    -0.16964     0.03355    -0.10947
  
  S Ag  16   0.04942    -0.08094     0.01049     0.00000     0.02633     0.00000
 PX Ag  16   0.00000     0.00000     0.00000     0.03778     0.00000    -0.01717
 PY Ag  16   0.01826     0.03738    -0.05081     0.00000    -0.02633     0.00000
 PZ Ag  16  -0.02891     0.06403     0.06958    -0.00000     0.02887     0.00000
 Z2 Ag  16   0.23264    -0.05709    -0.23427     0.00000    -0.05529     0.00000
 X2 Ag  16   0.04494     0.02953    -0.13488     0.00000    -0.08077    -0.00000
 XY Ag  16  -0.00000    -0.00000    -0.00000    -0.08811    -0.00000     0.11179
 XZ Ag  16  -0.00000    -0.00000    -0.00000    -0.05453     0.00000    -0.05912
 YZ Ag  16  -0.08566     0.02110    -0.15159     0.00000    -0.02878    -0.00000
  
  S Ag  17   0.05308     0.02717    -0.04532    -0.05860     0.02728    -0.04045
 PX Ag  17   0.02153     0.05854    -0.04985    -0.00934    -0.00686     0.01375
 PY Ag  17   0.01214     0.04659     0.00688    -0.02725     0.00045     0.01794
 PZ Ag  17   0.02655     0.05288     0.01112     0.04889     0.02569     0.01877
 Z2 Ag  17  -0.06605    -0.21398    -0.01928    -0.15656     0.03023    -0.11060
 X2 Ag  17   0.06577     0.05457    -0.06819     0.06052     0.05588    -0.01857
 XY Ag  17   0.11288     0.14194     0.01412     0.02405     0.08928    -0.04930
 XZ Ag  17   0.18131     0.05816     0.01517    -0.00894     0.28818    -0.09464
 YZ Ag  17   0.10538     0.01146    -0.05311     0.03272     0.13502    -0.12699
  
  S Ag  18   0.05308     0.02717    -0.04532     0.05860     0.02728     0.04045
 PX Ag  18  -0.02153    -0.05854     0.04985    -0.00934     0.00686     0.01375
 PY Ag  18   0.01214     0.04659     0.00688     0.02725     0.00045    -0.01794
 PZ Ag  18   0.02655     0.05288     0.01112    -0.04889     0.02569    -0.01877
 Z2 Ag  18  -0.06605    -0.21398    -0.01928     0.15656     0.03023     0.11060
 X2 Ag  18   0.06577     0.05457    -0.06819    -0.06052     0.05588     0.01857
 XY Ag  18  -0.11288    -0.14194    -0.01412     0.02405    -0.08928    -0.04930
 XZ Ag  18  -0.18131    -0.05816    -0.01517    -0.00894    -0.28818    -0.09464
 YZ Ag  18   0.10538     0.01146    -0.05311    -0.03272     0.13502     0.12699
  
  S Ag  19   0.05238     0.06145     0.05011    -0.00000     0.00964     0.00000
 PX Ag  19   0.00000     0.00000     0.00000     0.03781     0.00000    -0.01750
 PY Ag  19  -0.02449    -0.08669     0.00431     0.00000    -0.00356     0.00000
 PZ Ag  19   0.02713     0.02431    -0.06841     0.00000     0.03385    -0.00000
 Z2 Ag  19  -0.06770    -0.12263     0.23486    -0.00000    -0.01745     0.00000
 X2 Ag  19  -0.13117    -0.12039     0.10508    -0.00000    -0.08233    -0.00000
 XY Ag  19  -0.00000    -0.00000    -0.00000    -0.08080    -0.00000    -0.01721
 XZ Ag  19  -0.00000    -0.00000    -0.00000    -0.06553    -0.00000     0.12612
 YZ Ag  19  -0.20943    -0.05096     0.02785    -0.00000    -0.25291    -0.00000
  
  S Ag  20   0.06840     0.04225    -0.01474     0.00000     0.07075     0.00000
 PX Ag  20   0.00000     0.00000     0.00000     0.02371    -0.00000     0.03040
 PY Ag  20  -0.00015     0.00800     0.02225    -0.00000    -0.00761     0.00000
 PZ Ag  20  -0.07075    -0.05571     0.01956    -0.00000    -0.06764    -0.00000
 Z2 Ag  20   0.20009     0.19971    -0.07048     0.00000     0.21254     0.00000
 X2 Ag  20   0.00008    -0.00243    -0.00675     0.00000     0.01064    -0.00000
 XY Ag  20   0.00000    -0.00000    -0.00000    -0.00734     0.00000    -0.04198
 XZ Ag  20  -0.00000    -0.00000    -0.00000    -0.06304     0.00000    -0.13582
 YZ Ag  20   0.00047    -0.02124    -0.05910     0.00000     0.03422    -0.00000




    ROOT NO.   13          14          15          16          17          18

           -15.09311   -15.00272   -14.77762   -14.77746   -14.73740   -14.73725
  
  
  S Ag   1   0.03964    -0.03661    -0.00003    -0.00016     0.02135     0.03212
 PX Ag   1   0.04424    -0.01415    -0.00013    -0.01915     0.00376     0.03540
 PY Ag   1  -0.00374    -0.00816    -0.01907     0.02172     0.03098     0.00360
 PZ Ag   1   0.01032    -0.00593     0.02710     0.01569     0.00997     0.00278
 Z2 Ag   1  -0.04786     0.00609     0.12537     0.07253    -0.01874    -0.06193
 X2 Ag   1   0.14944    -0.00730     0.07167    -0.20009    -0.05637     0.10139
 XY Ag   1   0.02102    -0.01256    -0.11738     0.07092     0.10190     0.05932
 XZ Ag   1   0.05160    -0.00923     0.16539     0.05138     0.03663     0.04324
 YZ Ag   1   0.02425    -0.00527     0.05145     0.10647     0.04508     0.01226
  
  S Ag   2   0.04762    -0.05277     0.00003    -0.05355     0.02884    -0.00155
 PX Ag   2   0.01180    -0.01800     0.00014     0.00746     0.01323    -0.04165
 PY Ag   2  -0.00953    -0.01260    -0.03062     0.00135    -0.00348    -0.01246
 PZ Ag   2  -0.01425    -0.00860     0.04343     0.00062     0.01481    -0.00855
 Z2 Ag   2  -0.17068     0.01271     0.14420     0.07553     0.09461    -0.05940
 X2 Ag   2   0.27286    -0.06776     0.08237    -0.17644     0.03451     0.14420
 XY Ag   2  -0.02649    -0.06201     0.06434     0.05696    -0.11701    -0.05053
 XZ Ag   2  -0.06635    -0.04219    -0.09048     0.03737     0.01601    -0.03634
 YZ Ag   2  -0.03031     0.06867     0.05960     0.06170    -0.05445    -0.05735
  
  S Ag   3   0.04762    -0.05277    -0.00003    -0.05355     0.02884     0.00155
 PX Ag   3  -0.01180     0.01800     0.00014    -0.00746    -0.01323    -0.04165
 PY Ag   3  -0.00953    -0.01260     0.03062     0.00135    -0.00348     0.01246
 PZ Ag   3  -0.01425    -0.00860    -0.04343     0.00062     0.01481     0.00855
 Z2 Ag   3  -0.17068     0.01271    -0.14420     0.07553     0.09461     0.05940
 X2 Ag   3   0.27286    -0.06776    -0.08237    -0.17644     0.03451    -0.14420
 XY Ag   3   0.02649     0.06201     0.06434    -0.05696     0.11701    -0.05053
 XZ Ag   3   0.06635     0.04219    -0.09048    -0.03737    -0.01601    -0.03634
 YZ Ag   3  -0.03031     0.06867    -0.05960     0.06170    -0.05445     0.05735
  
  S Ag   4   0.03964    -0.03661     0.00003    -0.00016     0.02135    -0.03212
 PX Ag   4  -0.04424     0.01415    -0.00013     0.01915    -0.00376     0.03540
 PY Ag   4  -0.00374    -0.00816     0.01907     0.02172     0.03098    -0.00360
 PZ Ag   4   0.01032    -0.00593    -0.02710     0.01569     0.00997    -0.00278
 Z2 Ag   4  -0.04786     0.00609    -0.12537     0.07253    -0.01874     0.06193
 X2 Ag   4   0.14944    -0.00730    -0.07167    -0.20009    -0.05637    -0.10139
 XY Ag   4  -0.02102     0.01256    -0.11738    -0.07092    -0.10190     0.05932
 XZ Ag   4  -0.05160     0.00923     0.16539    -0.05138    -0.03663     0.04324
 YZ Ag   4   0.02425    -0.00527    -0.05145     0.10647     0.04508    -0.01226
  
  S Ag   5  -0.01989    -0.05266    -0.04610     0.02653    -0.00755     0.02159
 PX Ag   5  -0.02456    -0.01987    -0.00899    -0.02550    -0.01787    -0.01874
 PY Ag   5  -0.02476    -0.00925     0.01268     0.01084    -0.03371    -0.00205
 PZ Ag   5   0.00366    -0.00854     0.02251     0.03763    -0.02544     0.01631
 Z2 Ag   5   0.02971     0.01286     0.13805     0.08863    -0.15321     0.09157
 X2 Ag   5  -0.09988    -0.01987     0.12529    -0.05621     0.00785    -0.19120
 XY Ag   5  -0.03097    -0.08960    -0.05655     0.15222     0.07937     0.03723
 XZ Ag   5  -0.02356     0.03787     0.06567    -0.03017    -0.11823    -0.02105
 YZ Ag   5   0.00749    -0.07067    -0.05124    -0.09459    -0.06980     0.06063
  
  S Ag   6  -0.00902     0.00553    -0.00000    -0.00013     0.02086    -0.00000
 PX Ag   6  -0.00000     0.00000     0.03067    -0.00000     0.00000     0.07129
 PY Ag   6   0.01223    -0.00013     0.00000     0.03043     0.06840    -0.00000
 PZ Ag   6  -0.00093     0.09190     0.00000     0.00019    -0.02018     0.00000
 Z2 Ag   6   0.02262     0.43270     0.00000     0.00095    -0.09687    -0.00000
 X2 Ag   6  -0.21078     0.00047    -0.00000    -0.14207    -0.03667     0.00000
 XY Ag   6   0.00000     0.00000    -0.13967     0.00000    -0.00000    -0.04224
 XZ Ag   6  -0.00000    -0.00000    -0.14388     0.00000     0.00000     0.15713
 YZ Ag   6   0.10975    -0.00043    -0.00000    -0.14420     0.14921    -0.00000
  
  S Ag   7  -0.01989    -0.05266     0.04610     0.02653    -0.00755    -0.02159
 PX Ag   7   0.02456     0.01987    -0.00899     0.02550     0.01787    -0.01874
 PY Ag   7  -0.02476    -0.00925    -0.01268     0.01084    -0.03371     0.00205
 PZ Ag   7   0.00366    -0.00854    -0.02251     0.03763    -0.02544    -0.01631
 Z2 Ag   7   0.02971     0.01286    -0.13805     0.08863    -0.15321    -0.09157
 X2 Ag   7  -0.09988    -0.01987    -0.12529    -0.05621     0.00785     0.19120
 XY Ag   7   0.03097     0.08960    -0.05655    -0.15222    -0.07937     0.03723
 XZ Ag   7   0.02356    -0.03787     0.06567     0.03017     0.11823    -0.02105
 YZ Ag   7   0.00749    -0.07067     0.05124    -0.09459    -0.06980    -0.06063
  
  S Ag   8  -0.00544    -0.05283    -0.04640     0.02687    -0.00638     0.02189
 PX Ag   8  -0.00854    -0.00214     0.01106     0.02455     0.00283    -0.01787
 PY Ag   8  -0.02710     0.02187    -0.01385    -0.00941    -0.03814    -0.02547
 PZ Ag   8   0.01496    -0.00854    -0.02122    -0.03807    -0.01193     0.02366
 Z2 Ag   8   0.09771     0.01322    -0.00699    -0.16344    -0.05538     0.14682
 X2 Ag   8   0.01596     0.08712     0.08357     0.06495    -0.02533     0.09310
 XY Ag   8  -0.16033    -0.02745    -0.17614     0.05727    -0.21578     0.03325
 XZ Ag   8  -0.00899     0.08040    -0.01995    -0.10179     0.05286    -0.03374
 YZ Ag   8  -0.12530     0.00278    -0.08004    -0.01167     0.03701    -0.07181
  
  S Ag   9  -0.00544    -0.05283     0.04640     0.02687    -0.00638    -0.02189
 PX Ag   9   0.00854     0.00214     0.01106    -0.02455    -0.00283    -0.01787
 PY Ag   9  -0.02710     0.02187     0.01385    -0.00941    -0.03814     0.02547
 PZ Ag   9   0.01496    -0.00854     0.02122    -0.03807    -0.01193    -0.02366
 Z2 Ag   9   0.09771     0.01322     0.00699    -0.16344    -0.05538    -0.14682
 X2 Ag   9   0.01596     0.08712    -0.08357     0.06495    -0.02533    -0.09310
 XY Ag   9   0.16033     0.02745    -0.17614    -0.05727     0.21578     0.03325
 XZ Ag   9   0.00899    -0.08040    -0.01995     0.10179    -0.05286    -0.03374
 YZ Ag   9  -0.12530     0.00278     0.08004    -0.01167     0.03701     0.07181
  
  S Ag  10  -0.06074    -0.03659     0.00000     0.00022    -0.03192     0.00000
 PX Ag  10   0.00000    -0.00000     0.03310    -0.00000     0.00000     0.02996
 PY Ag  10   0.04905     0.01638    -0.00000    -0.01140     0.03525    -0.00000
 PZ Ag  10  -0.03523    -0.00580    -0.00000    -0.03162     0.00569     0.00000
 Z2 Ag  10   0.00182     0.00646    -0.00000    -0.14546     0.08392    -0.00000
 X2 Ag  10   0.12948     0.01484    -0.00000    -0.07717     0.11012    -0.00000
 XY Ag  10  -0.00000     0.00000    -0.24218     0.00000    -0.00000    -0.11886
 XZ Ag  10   0.00000    -0.00000     0.07750    -0.00000     0.00000     0.02506
 YZ Ag  10   0.14953     0.01020     0.00000     0.19581     0.01748    -0.00000
  
  S Ag  11   0.00825    -0.05250     0.04600     0.02663     0.00677     0.02204
 PX Ag  11  -0.02135    -0.01951     0.00929    -0.02565     0.00413    -0.01867
 PY Ag  11   0.00435    -0.01120    -0.02569     0.03904    -0.03799     0.01434
 PZ Ag  11  -0.00624    -0.00587    -0.00431    -0.00249    -0.01108    -0.00730
 Z2 Ag  11   0.12114     0.04899     0.11461     0.06570     0.06631     0.08559
 X2 Ag  11  -0.09170     0.00247     0.02383    -0.07067     0.21254    -0.19543
 XY Ag  11   0.02862     0.00463    -0.04304     0.02417    -0.17631    -0.00806
 XZ Ag  11   0.06368    -0.09727     0.07561     0.15421     0.08591     0.04403
 YZ Ag  11   0.09367    -0.05630     0.15442    -0.10317    -0.01325     0.05918
  
  S Ag  12  -0.03003     0.00653    -0.00000    -0.00080     0.06017    -0.00000
 PX Ag  12  -0.00000     0.00000    -0.03178     0.00000     0.00000     0.07107
 PY Ag  12  -0.00035     0.08619     0.00000     0.01114    -0.04139     0.00000
 PZ Ag  12   0.00775    -0.03057     0.00000     0.02874     0.05907    -0.00000
 Z2 Ag  12   0.03459    -0.14199     0.00000     0.18433     0.06591    -0.00000
 X2 Ag  12  -0.14620    -0.33030    -0.00000    -0.03638     0.17381    -0.00000
 XY Ag  12  -0.00000     0.00000     0.17972    -0.00000     0.00000     0.13552
 XZ Ag  12   0.00000     0.00000     0.08368    -0.00000    -0.00000    -0.09194
 YZ Ag  12   0.04796    -0.23456    -0.00000    -0.06991     0.23376    -0.00000
  
  S Ag  13   0.00825    -0.05250    -0.04600     0.02663     0.00677    -0.02204
 PX Ag  13   0.02135     0.01951     0.00929     0.02565    -0.00413    -0.01867
 PY Ag  13   0.00435    -0.01120     0.02569     0.03904    -0.03799    -0.01434
 PZ Ag  13  -0.00624    -0.00587     0.00431    -0.00249    -0.01108     0.00730
 Z2 Ag  13   0.12114     0.04899    -0.11461     0.06570     0.06631    -0.08559
 X2 Ag  13  -0.09170     0.00247    -0.02383    -0.07067     0.21254     0.19543
 XY Ag  13  -0.02862    -0.00463    -0.04304    -0.02417     0.17631    -0.00806
 XZ Ag  13  -0.06368     0.09727     0.07561    -0.15421    -0.08591     0.04403
 YZ Ag  13   0.09367    -0.05630    -0.15442    -0.10317    -0.01325    -0.05918
  
  S Ag  14   0.01969     0.00662    -0.00051     0.00053    -0.04030     0.06044
 PX Ag  14   0.00710     0.07457     0.00017    -0.01877     0.06402    -0.02477
 PY Ag  14   0.00783    -0.04306    -0.01848    -0.02130     0.03094     0.05500
 PZ Ag  14   0.00027    -0.03047     0.02513    -0.01455    -0.00649     0.03946
 Z2 Ag  14   0.02560    -0.14213     0.16094    -0.09195    -0.07193     0.07956
 X2 Ag  14   0.01014     0.16498     0.09395     0.12534     0.17606    -0.03964
 XY Ag  14   0.03450    -0.28583     0.01761     0.09335    -0.07615     0.20729
 XZ Ag  14  -0.06987    -0.20213    -0.02926     0.06680    -0.11552     0.14747
 YZ Ag  14  -0.19794     0.11663     0.06661     0.04612    -0.01830    -0.13170
  
  S Ag  15   0.01969     0.00662     0.00051     0.00053    -0.04030    -0.06044
 PX Ag  15  -0.00710    -0.07457     0.00017     0.01877    -0.06402    -0.02477
 PY Ag  15   0.00783    -0.04306     0.01848    -0.02130     0.03094    -0.05500
 PZ Ag  15   0.00027    -0.03047    -0.02513    -0.01455    -0.00649    -0.03946
 Z2 Ag  15   0.02560    -0.14213    -0.16094    -0.09195    -0.07193    -0.07956
 X2 Ag  15   0.01014     0.16498    -0.09395     0.12534     0.17606     0.03964
 XY Ag  15  -0.03450     0.28583     0.01761    -0.09335     0.07615     0.20729
 XZ Ag  15   0.06987     0.20213    -0.02926    -0.06680     0.11552     0.14747
 YZ Ag  15  -0.19794     0.11663    -0.06661     0.04612    -0.01830     0.13170
  
  S Ag  16  -0.04462    -0.05238    -0.00000    -0.05332    -0.02956     0.00000
 PX Ag  16  -0.00000     0.00000     0.05400    -0.00000    -0.00000    -0.04261
 PY Ag  16  -0.01648     0.02252    -0.00000    -0.00553     0.00032     0.00000
 PZ Ag  16  -0.01074    -0.00584     0.00000     0.00509     0.00074    -0.00000
 Z2 Ag  16  -0.25068     0.04895    -0.00000    -0.13185    -0.07722     0.00000
 X2 Ag  16   0.02084    -0.00528    -0.00000    -0.02854    -0.12848     0.00000
 XY Ag  16   0.00000    -0.00000    -0.08419     0.00000     0.00000     0.32971
 XZ Ag  16  -0.00000     0.00000    -0.19411     0.00000    -0.00000    -0.06785
 YZ Ag  16   0.27810     0.11150     0.00000     0.16473     0.04432    -0.00000
  
  S Ag  17   0.01691    -0.05248     0.04635     0.02663     0.00808     0.02291
 PX Ag  17  -0.01693    -0.00189    -0.01088     0.02414     0.01259    -0.01789
 PY Ag  17   0.00725    -0.00107     0.02429    -0.03879    -0.03515     0.01440
 PZ Ag  17  -0.01797     0.02325     0.00636     0.00374    -0.02484    -0.03181
 Z2 Ag  17   0.05800    -0.07303     0.02057     0.01218    -0.02951    -0.08102
 X2 Ag  17   0.01401     0.03751    -0.07613     0.16484     0.03078    -0.04100
 XY Ag  17  -0.00416     0.06527     0.07805    -0.07554    -0.04053    -0.01852
 XZ Ag  17   0.05541    -0.05403     0.15965     0.08844    -0.20150     0.04502
 YZ Ag  17  -0.08961    -0.03152     0.08825     0.05781     0.20264    -0.16385
  
  S Ag  18   0.01691    -0.05248    -0.04635     0.02663     0.00808    -0.02291
 PX Ag  18   0.01693     0.00189    -0.01088    -0.02414    -0.01259    -0.01789
 PY Ag  18   0.00725    -0.00107    -0.02429    -0.03879    -0.03515    -0.01440
 PZ Ag  18  -0.01797     0.02325    -0.00636     0.00374    -0.02484     0.03181
 Z2 Ag  18   0.05800    -0.07303    -0.02057     0.01218    -0.02951     0.08102
 X2 Ag  18   0.01401     0.03751     0.07613     0.16484     0.03078     0.04100
 XY Ag  18   0.00416    -0.06527     0.07805     0.07554     0.04053    -0.01852
 XZ Ag  18  -0.05541     0.05403     0.15965    -0.08844     0.20150     0.04502
 YZ Ag  18  -0.08961    -0.03152    -0.08825     0.05781     0.20264     0.16385
  
  S Ag  19  -0.05072    -0.05237    -0.00000    -0.05333    -0.03092     0.00000
 PX Ag  19  -0.00000     0.00000    -0.05320     0.00000    -0.00000    -0.04388
 PY Ag  19  -0.02404     0.00216     0.00000     0.00304    -0.00653     0.00000
 PZ Ag  19   0.01346     0.02314    -0.00000    -0.00738     0.02772    -0.00000
 Z2 Ag  19  -0.12691    -0.07269    -0.00000    -0.02448     0.10596    -0.00000
 X2 Ag  19   0.08381    -0.07538     0.00000     0.03438    -0.04103     0.00000
 XY Ag  19  -0.00000     0.00000     0.20975    -0.00000     0.00000     0.05202
 XZ Ag  19   0.00000    -0.00000     0.00861     0.00000     0.00000     0.33561
 YZ Ag  19   0.23952     0.06219     0.00000     0.21056     0.00290    -0.00000
  
  S Ag  20  -0.01860    -0.03663    -0.00000     0.00000    -0.01102     0.00000
 PX Ag  20   0.00000    -0.00000    -0.03377     0.00000     0.00000     0.02929
 PY Ag  20  -0.02931     0.00002    -0.00000    -0.03380     0.02767    -0.00000
 PZ Ag  20   0.01779     0.01751    -0.00000    -0.00000     0.01082    -0.00000
 Z2 Ag  20  -0.05595    -0.01984     0.00000    -0.00001    -0.04229     0.00000
 X2 Ag  20   0.04058    -0.00010     0.00000     0.00913    -0.01632     0.00000
 XY Ag  20  -0.00000     0.00000     0.00877    -0.00000    -0.00000    -0.01611
 XZ Ag  20  -0.00000     0.00000     0.25749    -0.00000    -0.00000    -0.11551
 YZ Ag  20   0.13082    -0.00019     0.00000     0.25746    -0.10839     0.00000




    ROOT NO.   19          20          21          22          23          24

           -14.73598   -14.69362   -14.69283   -14.69271   -14.42943   -14.42901
  
  
  S Ag   1  -0.00736     0.00028    -0.00041     0.00008    -0.00246    -0.00086
 PX Ag   1  -0.00139     0.01160    -0.00019     0.01158    -0.01553     0.00688
 PY Ag   1   0.00734    -0.02235     0.00916    -0.00401     0.00617    -0.02187
 PZ Ag   1  -0.02874     0.00409    -0.01358    -0.02242     0.00433    -0.00173
 Z2 Ag   1  -0.06360     0.00207    -0.00894    -0.01451     0.07058     0.02199
 X2 Ag   1  -0.02230     0.07087    -0.00542     0.06186    -0.16609     0.17163
 XY Ag   1   0.01752    -0.05381     0.04753     0.04248    -0.02464    -0.15457
 XZ Ag   1  -0.08617     0.06512    -0.06931    -0.07183    -0.01647     0.02445
 YZ Ag   1  -0.04404    -0.07405    -0.00436    -0.08281     0.06167    -0.10798
  
  S Ag   2  -0.00998     0.03517    -0.00047     0.03564     0.00461     0.03354
 PX Ag   2  -0.00428    -0.01499    -0.00001    -0.01500     0.03096    -0.01641
 PY Ag   2  -0.02513    -0.00735     0.00052     0.03886    -0.00367    -0.01148
 PZ Ag   2   0.03222     0.04394    -0.00078    -0.02084    -0.00249     0.00799
 Z2 Ag   2   0.17002     0.16327    -0.04855    -0.13693     0.06503     0.07652
 X2 Ag   2   0.10404     0.07014    -0.02897    -0.10418    -0.10541     0.11335
 XY Ag   2  -0.10488     0.02973    -0.13855    -0.01792     0.09335    -0.01914
 XZ Ag   2   0.20028    -0.03032     0.19768     0.03778     0.06504    -0.10364
 YZ Ag   2   0.10218     0.05796    -0.01866    -0.06573    -0.01076    -0.04589
  
  S Ag   3  -0.00998    -0.03517    -0.00047    -0.03564    -0.00461     0.03354
 PX Ag   3   0.00428    -0.01499     0.00001    -0.01500     0.03096     0.01641
 PY Ag   3  -0.02513     0.00735     0.00052    -0.03886     0.00367    -0.01148
 PZ Ag   3   0.03222    -0.04394    -0.00078     0.02084     0.00249     0.00799
 Z2 Ag   3   0.17002    -0.16327    -0.04855     0.13693    -0.06503     0.07652
 X2 Ag   3   0.10404    -0.07014    -0.02897     0.10418     0.10541     0.11335
 XY Ag   3   0.10488     0.02973     0.13855    -0.01792     0.09335     0.01914
 XZ Ag   3  -0.20028    -0.03032    -0.19768     0.03778     0.06504     0.10364
 YZ Ag   3   0.10218    -0.05796    -0.01866     0.06573     0.01076    -0.04589
  
  S Ag   4  -0.00736    -0.00028    -0.00041    -0.00008     0.00246    -0.00086
 PX Ag   4   0.00139     0.01160     0.00019     0.01158    -0.01553    -0.00688
 PY Ag   4   0.00734     0.02235     0.00916     0.00401    -0.00617    -0.02187
 PZ Ag   4  -0.02874    -0.00409    -0.01358     0.02242    -0.00433    -0.00173
 Z2 Ag   4  -0.06360    -0.00207    -0.00894     0.01451    -0.07058     0.02199
 X2 Ag   4  -0.02230    -0.07087    -0.00542    -0.06186     0.16609     0.17163
 XY Ag   4  -0.01752    -0.05381    -0.04753     0.04248    -0.02464     0.15457
 XZ Ag   4   0.08617     0.06512     0.06931    -0.07183    -0.01647    -0.02445
 YZ Ag   4  -0.04404     0.07405    -0.00436     0.08281    -0.06167    -0.10798
  
  S Ag   5  -0.02131    -0.04272     0.02487     0.00712     0.02908    -0.00842
 PX Ag   5  -0.03062     0.00576     0.02376     0.01599    -0.01020     0.02057
 PY Ag   5  -0.00441     0.01701    -0.02560    -0.01258     0.00869     0.02563
 PZ Ag   5   0.02090    -0.03593    -0.02308    -0.02192     0.00908    -0.01227
 Z2 Ag   5   0.09881    -0.11118    -0.11219    -0.14818     0.12512    -0.02646
 X2 Ag   5  -0.10899     0.01297     0.08386    -0.07185     0.01524     0.13068
 XY Ag   5   0.06756    -0.03059    -0.04770    -0.14522     0.06658    -0.10218
 XZ Ag   5   0.16961    -0.03589    -0.07338     0.04213    -0.06102     0.05397
 YZ Ag   5   0.09570     0.00767    -0.02439     0.19747    -0.05084     0.12498
  
  S Ag   6  -0.07119     0.00000    -0.00127    -0.00000    -0.00000     0.00185
 PX Ag   6   0.00000     0.00501    -0.00000    -0.02407    -0.00135     0.00000
 PY Ag   6   0.02037     0.00000    -0.02511     0.00000    -0.00000    -0.00090
 PZ Ag   6   0.06935    -0.00000     0.00117    -0.00000     0.00000    -0.00357
 Z2 Ag   6   0.33328    -0.00000     0.00575    -0.00000     0.00000    -0.01990
 X2 Ag   6  -0.01767     0.00000     0.37651    -0.00000    -0.00000     0.21061
 XY Ag   6  -0.00000    -0.06743     0.00000     0.37069     0.21346     0.00000
 XZ Ag   6   0.00000     0.00174    -0.00000    -0.00746     0.13169     0.00000
 YZ Ag   6   0.04439     0.00000    -0.00956     0.00000    -0.00000     0.12991
  
  S Ag   7  -0.02131     0.04272     0.02487    -0.00712    -0.02908    -0.00842
 PX Ag   7   0.03062     0.00576    -0.02376     0.01599    -0.01020    -0.02057
 PY Ag   7  -0.00441    -0.01701    -0.02560     0.01258    -0.00869     0.02563
 PZ Ag   7   0.02090     0.03593    -0.02308     0.02192    -0.00908    -0.01227
 Z2 Ag   7   0.09881     0.11118    -0.11219     0.14818    -0.12512    -0.02646
 X2 Ag   7  -0.10899    -0.01297     0.08386     0.07185    -0.01524     0.13068
 XY Ag   7  -0.06756    -0.03059     0.04770    -0.14522     0.06658     0.10218
 XZ Ag   7  -0.16961    -0.03589     0.07338     0.04213    -0.06102    -0.05397
 YZ Ag   7   0.09570    -0.00767    -0.02439    -0.19747     0.05084     0.12498
  
  S Ag   8  -0.01985     0.04290    -0.02528    -0.00677     0.02484    -0.01622
 PX Ag   8  -0.01524     0.01154    -0.03546    -0.01782     0.00608     0.01999
 PY Ag   8   0.00790     0.01347     0.00878     0.00677     0.02965     0.01200
 PZ Ag   8   0.02426     0.03679     0.02535     0.02001     0.01198    -0.00775
 Z2 Ag   8   0.12295     0.13005     0.16895     0.06153     0.06169    -0.13797
 X2 Ag   8   0.01206    -0.05936    -0.13415     0.06877    -0.03747     0.07165
 XY Ag   8   0.05295     0.01353     0.05796     0.08642     0.15861     0.07104
 XZ Ag   8   0.01418     0.06017     0.13210    -0.04834     0.05643    -0.00984
 YZ Ag   8  -0.22255     0.02022     0.07559    -0.13599     0.13053    -0.01969
  
  S Ag   9  -0.01985    -0.04290    -0.02528     0.00677    -0.02484    -0.01622
 PX Ag   9   0.01524     0.01154     0.03546    -0.01782     0.00608    -0.01999
 PY Ag   9   0.00790    -0.01347     0.00878    -0.00677    -0.02965     0.01200
 PZ Ag   9   0.02426    -0.03679     0.02535    -0.02001    -0.01198    -0.00775
 Z2 Ag   9   0.12295    -0.13005     0.16895    -0.06153    -0.06169    -0.13797
 X2 Ag   9   0.01206     0.05936    -0.13415    -0.06877     0.03747     0.07165
 XY Ag   9  -0.05295     0.01353    -0.05796     0.08642     0.15861    -0.07104
 XZ Ag   9  -0.01418     0.06017    -0.13210    -0.04834     0.05643     0.00984
 YZ Ag   9  -0.22255    -0.02022     0.07559     0.13599    -0.13053    -0.01969
  
  S Ag  10  -0.02282    -0.00000    -0.00002    -0.00000    -0.00000     0.00313
 PX Ag  10   0.00000    -0.02700     0.00000     0.00458    -0.02633    -0.00000
 PY Ag  10   0.01300    -0.00000     0.00910    -0.00000     0.00000    -0.01260
 PZ Ag  10  -0.03059     0.00000     0.02566    -0.00000     0.00000    -0.00896
 Z2 Ag  10  -0.03359     0.00000     0.01440    -0.00000     0.00000    -0.09846
 X2 Ag  10   0.04352     0.00000     0.07836    -0.00000     0.00000    -0.13003
 XY Ag  10   0.00000     0.09338    -0.00000    -0.01578     0.26444     0.00000
 XZ Ag  10   0.00000    -0.10591     0.00000     0.01718    -0.12527    -0.00000
 YZ Ag  10   0.11967    -0.00000    -0.11872     0.00000    -0.00000     0.05970
  
  S Ag  11   0.02198     0.00799    -0.02464    -0.04280     0.02907     0.01254
 PX Ag  11   0.03513     0.01580    -0.02354     0.00611    -0.01006     0.01385
 PY Ag  11   0.00748    -0.02434     0.03148    -0.02870     0.01102    -0.02144
 PZ Ag  11   0.02297    -0.00522     0.01681     0.02808     0.00525     0.00876
 Z2 Ag  11  -0.05017    -0.00280     0.01146     0.02194    -0.02451    -0.04424
 X2 Ag  11   0.04249     0.00985    -0.14623     0.09157    -0.07120     0.05392
 XY Ag  11  -0.09180    -0.00902     0.08875    -0.04411    -0.03663    -0.05901
 XZ Ag  11  -0.07494    -0.15048     0.01823    -0.01952     0.08373    -0.11826
 YZ Ag  11  -0.06051     0.25593    -0.01759     0.06677    -0.11341     0.20793
  
  S Ag  12   0.04307     0.00000     0.00035     0.00000     0.00000     0.00628
 PX Ag  12   0.00000    -0.02389     0.00000     0.00431    -0.00160     0.00000
 PY Ag  12  -0.05971    -0.00000     0.00771    -0.00000     0.00000    -0.02244
 PZ Ag  12  -0.04022    -0.00000     0.02249    -0.00000    -0.00000     0.00664
 Z2 Ag  12   0.11101     0.00000     0.28787    -0.00000     0.00000    -0.07541
 X2 Ag  12   0.21992     0.00000    -0.21000     0.00000    -0.00000     0.12993
 XY Ag  12   0.00000     0.11860    -0.00000    -0.01960     0.19724     0.00000
 XZ Ag  12  -0.00000     0.35220    -0.00000    -0.05867     0.15489     0.00000
 YZ Ag  12   0.00157     0.00000     0.12406    -0.00000    -0.00000     0.08501
  
  S Ag  13   0.02198    -0.00799    -0.02464     0.04280    -0.02907     0.01254
 PX Ag  13  -0.03513     0.01580     0.02354     0.00611    -0.01006    -0.01385
 PY Ag  13   0.00748     0.02434     0.03148     0.02870    -0.01102    -0.02144
 PZ Ag  13   0.02297     0.00522     0.01681    -0.02808    -0.00525     0.00876
 Z2 Ag  13  -0.05017     0.00280     0.01146    -0.02194     0.02451    -0.04424
 X2 Ag  13   0.04249    -0.00985    -0.14623    -0.09157     0.07120     0.05392
 XY Ag  13   0.09180    -0.00902    -0.08875    -0.04411    -0.03663     0.05901
 XZ Ag  13   0.07494    -0.15048    -0.01823    -0.01952     0.08373     0.11826
 YZ Ag  13  -0.06051    -0.25593    -0.01759    -0.06677     0.11341     0.20793
  
  S Ag  14   0.01372     0.00066     0.00042     0.00040     0.00542    -0.00284
 PX Ag  14  -0.02248     0.00992    -0.00110     0.01015    -0.01886     0.01233
 PY Ag  14   0.03277     0.02058     0.00846     0.00384     0.01076    -0.00848
 PZ Ag  14  -0.05907    -0.00314    -0.01262     0.02011     0.00695    -0.00491
 Z2 Ag  14   0.07835    -0.04183    -0.14064     0.24312    -0.02830    -0.02458
 X2 Ag  14  -0.02982    -0.10801    -0.08490     0.05592     0.02775     0.17643
 XY Ag  14   0.11916    -0.02233     0.07769    -0.17567     0.14617     0.02990
 XZ Ag  14  -0.08777    -0.17687    -0.10595     0.03404     0.10477     0.02865
 YZ Ag  14   0.02745    -0.26944    -0.05707    -0.15666     0.03053     0.13823
  
  S Ag  15   0.01372    -0.00066     0.00042    -0.00040    -0.00542    -0.00284
 PX Ag  15   0.02248     0.00992     0.00110     0.01015    -0.01886    -0.01233
 PY Ag  15   0.03277    -0.02058     0.00846    -0.00384    -0.01076    -0.00848
 PZ Ag  15  -0.05907     0.00314    -0.01262    -0.02011    -0.00695    -0.00491
 Z2 Ag  15   0.07835     0.04183    -0.14064    -0.24312     0.02830    -0.02458
 X2 Ag  15  -0.02982     0.10801    -0.08490    -0.05592    -0.02775     0.17643
 XY Ag  15  -0.11916    -0.02233    -0.07769    -0.17567     0.14617    -0.02990
 XZ Ag  15   0.08777    -0.17687     0.10595     0.03404     0.10477    -0.02865
 YZ Ag  15   0.02745     0.26944    -0.05707     0.15666    -0.03053     0.13823
  
  S Ag  16   0.01029     0.00000     0.05045    -0.00000     0.00000    -0.03715
 PX Ag  16  -0.00000    -0.04133     0.00000     0.03782    -0.03032    -0.00000
 PY Ag  16  -0.03824    -0.00000    -0.01120     0.00000     0.00000    -0.00653
 PZ Ag  16   0.02711    -0.00000    -0.03248     0.00000    -0.00000    -0.00034
 Z2 Ag  16  -0.09077     0.00000    -0.02686     0.00000     0.00000    -0.00170
 X2 Ag  16   0.00711    -0.00000     0.01077    -0.00000     0.00000    -0.09049
 XY Ag  16   0.00000     0.07005    -0.00000    -0.18556     0.09058     0.00000
 XZ Ag  16  -0.00000     0.30323     0.00000     0.02641     0.28242     0.00000
 YZ Ag  16   0.12695    -0.00000     0.02139    -0.00000    -0.00000     0.02643
  
  S Ag  17   0.02002    -0.00734     0.02546     0.04264     0.02467     0.00874
 PX Ag  17   0.01046    -0.01808     0.03550     0.01135     0.00613     0.02158
 PY Ag  17  -0.00557     0.02053    -0.02616     0.03939     0.02061    -0.01671
 PZ Ag  17   0.01991    -0.00042     0.00098     0.00058     0.02403     0.01512
 Z2 Ag  17  -0.06738    -0.00019    -0.00573    -0.00764    -0.06300    -0.02651
 X2 Ag  17   0.00402     0.03508     0.22836    -0.13842    -0.10873     0.23377
 XY Ag  17  -0.01167    -0.01751    -0.14298     0.06055     0.10631    -0.09407
 XZ Ag  17   0.10017     0.09738    -0.00571    -0.00565     0.13021     0.08863
 YZ Ag  17   0.15169    -0.16146    -0.01168    -0.03842     0.08216     0.04144
  
  S Ag  18   0.02002     0.00734     0.02546    -0.04264    -0.02467     0.00874
 PX Ag  18  -0.01046    -0.01808    -0.03550     0.01135     0.00613    -0.02158
 PY Ag  18  -0.00557    -0.02053    -0.02616    -0.03939    -0.02061    -0.01671
 PZ Ag  18   0.01991     0.00042     0.00098    -0.00058    -0.02403     0.01512
 Z2 Ag  18  -0.06738     0.00019    -0.00573     0.00764     0.06300    -0.02651
 X2 Ag  18   0.00402    -0.03508     0.22836     0.13842     0.10873     0.23377
 XY Ag  18   0.01167    -0.01751     0.14298     0.06055     0.10631     0.09407
 XZ Ag  18  -0.10017     0.09738     0.00571    -0.00565     0.13021    -0.08863
 YZ Ag  18   0.15169     0.16146    -0.01168     0.03842    -0.08216     0.04144
  
  S Ag  19   0.00990    -0.00000    -0.04966     0.00000     0.00000    -0.03303
 PX Ag  19  -0.00000     0.03815    -0.00000    -0.04040    -0.03001    -0.00000
 PY Ag  19  -0.01096     0.00000     0.03455    -0.00000     0.00000     0.01619
 PZ Ag  19   0.03538     0.00000    -0.00063     0.00000     0.00000    -0.02611
 Z2 Ag  19  -0.02785     0.00000     0.00696    -0.00000    -0.00000     0.07921
 X2 Ag  19  -0.00949    -0.00000    -0.01913     0.00000     0.00000     0.02988
 XY Ag  19  -0.00000    -0.04111     0.00000     0.30699     0.29378     0.00000
 XZ Ag  19   0.00000    -0.18138    -0.00000    -0.03946    -0.00841    -0.00000
 YZ Ag  19  -0.18277    -0.00000    -0.02962     0.00000    -0.00000     0.16684
  
  S Ag  20   0.03737     0.00000     0.00064     0.00000    -0.00000     0.00109
 PX Ag  20   0.00000     0.00520    -0.00000    -0.02705    -0.02625    -0.00000
 PY Ag  20   0.00860     0.00000    -0.02787     0.00000     0.00000    -0.02591
 PZ Ag  20  -0.03677    -0.00000    -0.00066    -0.00000     0.00000    -0.00164
 Z2 Ag  20   0.14410    -0.00000     0.00279     0.00000    -0.00000     0.01734
 X2 Ag  20  -0.00369    -0.00000    -0.06840     0.00000     0.00000    -0.02684
 XY Ag  20  -0.00000     0.01144    -0.00000    -0.06734    -0.02850    -0.00000
 XZ Ag  20  -0.00000    -0.02364     0.00000     0.12355     0.29099     0.00000
 YZ Ag  20  -0.03409    -0.00000     0.12787    -0.00000    -0.00000     0.28784




    ROOT NO.   25          26          27          28          29          30

           -14.42847   -14.41916   -14.39729   -14.39693   -14.39550   -14.29929
  
  
  S Ag   1   0.00127    -0.02715     0.00009     0.00000    -0.00026     0.00049
 PX Ag   1  -0.00315    -0.00085    -0.01175    -0.01179    -0.00000     0.01825
 PY Ag   1  -0.00620    -0.00103     0.00398     0.02323    -0.00955    -0.02854
 PZ Ag   1   0.02447    -0.00042     0.02313    -0.00397     0.01370    -0.00454
 Z2 Ag   1   0.11895    -0.02026     0.12870    -0.02196     0.07709    -0.02348
 X2 Ag   1  -0.00774     0.02925    -0.06026    -0.14741     0.04579     0.31325
 XY Ag   1  -0.09044     0.03931     0.02019     0.08797    -0.03435    -0.16189
 XZ Ag   1   0.21709     0.03344     0.08447    -0.00962     0.04902     0.03154
 YZ Ag   1   0.10491     0.01652     0.04527    -0.01667     0.03302    -0.14085
  
  S Ag   2  -0.01666     0.03038     0.01011     0.00978     0.00039     0.02350
 PX Ag   2   0.00808    -0.01643     0.01876     0.01878    -0.00033    -0.04233
 PY Ag   2  -0.01460     0.01812     0.01919     0.00443     0.03284    -0.00876
 PZ Ag   2   0.02360     0.01457    -0.00217     0.01857    -0.04604     0.01322
 Z2 Ag   2   0.17454     0.09368    -0.05168     0.17900    -0.14129    -0.03609
 X2 Ag   2   0.07401    -0.17129    -0.15483    -0.02121    -0.08371     0.12432
 XY Ag   2   0.12471    -0.14109    -0.01664    -0.03988     0.15250     0.03203
 XZ Ag   2  -0.10505    -0.09830    -0.03470    -0.00382    -0.21983    -0.09283
 YZ Ag   2   0.10901     0.03437    -0.07892     0.01590    -0.05895    -0.06395
  
  S Ag   3  -0.01666     0.03038    -0.01011    -0.00978     0.00039    -0.02350
 PX Ag   3  -0.00808     0.01643     0.01876     0.01878     0.00033    -0.04233
 PY Ag   3  -0.01460     0.01812    -0.01919    -0.00443     0.03284     0.00876
 PZ Ag   3   0.02360     0.01457     0.00217    -0.01857    -0.04604    -0.01322
 Z2 Ag   3   0.17454     0.09368     0.05168    -0.17900    -0.14129     0.03609
 X2 Ag   3   0.07401    -0.17129     0.15483     0.02121    -0.08371    -0.12432
 XY Ag   3  -0.12471     0.14109    -0.01664    -0.03988    -0.15250     0.03203
 XZ Ag   3   0.10505     0.09830    -0.03470    -0.00382     0.21983    -0.09283
 YZ Ag   3   0.10901     0.03437     0.07892    -0.01590    -0.05895     0.06395
  
  S Ag   4   0.00127    -0.02715    -0.00009    -0.00000    -0.00026    -0.00049
 PX Ag   4   0.00315     0.00085    -0.01175    -0.01179     0.00000     0.01825
 PY Ag   4  -0.00620    -0.00103    -0.00398    -0.02323    -0.00955     0.02854
 PZ Ag   4   0.02447    -0.00042    -0.02313     0.00397     0.01370     0.00454
 Z2 Ag   4   0.11895    -0.02026    -0.12870     0.02196     0.07709     0.02348
 X2 Ag   4  -0.00774     0.02925     0.06026     0.14741     0.04579    -0.31325
 XY Ag   4   0.09044    -0.03931     0.02019     0.08797     0.03435    -0.16189
 XZ Ag   4  -0.21709    -0.03344     0.08447    -0.00962    -0.04902     0.03154
 YZ Ag   4   0.10491     0.01652    -0.04527     0.01667     0.03302     0.14085
  
  S Ag   5  -0.02389     0.02924     0.00219    -0.01193     0.00769    -0.01923
 PX Ag   5  -0.00172     0.00890     0.03265    -0.02309     0.00629     0.03258
 PY Ag   5   0.02003    -0.02279    -0.01446    -0.01285     0.01152     0.02343
 PZ Ag   5   0.01955     0.01317    -0.04510    -0.01073     0.01897    -0.02416
 Z2 Ag   5   0.15576     0.08967    -0.19077    -0.13893     0.00447     0.00910
 X2 Ag   5   0.10753    -0.02770     0.18361    -0.01819    -0.02927     0.01375
 XY Ag   5   0.09457    -0.22256    -0.05004     0.07072    -0.12305    -0.12905
 XZ Ag   5   0.06395    -0.01850    -0.18054     0.03332     0.00558     0.09988
 YZ Ag   5  -0.11433    -0.10120    -0.12991     0.03227     0.08712     0.08776
  
  S Ag   6  -0.00645    -0.02389     0.00000    -0.00000    -0.00035     0.00000
 PX Ag   6   0.00000    -0.00000    -0.10966     0.01848     0.00000    -0.00626
 PY Ag   6   0.00077     0.00176    -0.00000    -0.00000    -0.11123    -0.00000
 PZ Ag   6   0.02777    -0.03978     0.00000    -0.00000    -0.00043     0.00000
 Z2 Ag   6   0.14309    -0.17589     0.00000    -0.00000    -0.00165    -0.00000
 X2 Ag   6   0.03589     0.00499     0.00000     0.00000     0.03230    -0.00000
 XY Ag   6  -0.00000     0.00000     0.03063    -0.00567     0.00000    -0.02311
 XZ Ag   6  -0.00000     0.00000     0.24374    -0.04128    -0.00000     0.02671
 YZ Ag   6   0.01938     0.00018     0.00000     0.00000     0.24962     0.00000
  
  S Ag   7  -0.02389     0.02924    -0.00219     0.01193     0.00769     0.01923
 PX Ag   7   0.00172    -0.00890     0.03265    -0.02309    -0.00629     0.03258
 PY Ag   7   0.02003    -0.02279     0.01446     0.01285     0.01152    -0.02343
 PZ Ag   7   0.01955     0.01317     0.04510     0.01073     0.01897     0.02416
 Z2 Ag   7   0.15576     0.08967     0.19077     0.13893     0.00447    -0.00910
 X2 Ag   7   0.10753    -0.02770    -0.18361     0.01819    -0.02927    -0.01375
 XY Ag   7  -0.09457     0.22256    -0.05004     0.07072     0.12305    -0.12905
 XZ Ag   7  -0.06395     0.01850    -0.18054     0.03332    -0.00558     0.09988
 YZ Ag   7  -0.11433    -0.10120     0.12991    -0.03227     0.08712    -0.08776
  
  S Ag   8  -0.02515     0.02914    -0.00254     0.01176    -0.00697     0.01831
 PX Ag   8  -0.01263     0.02530     0.01933    -0.00772    -0.02079     0.00967
 PY Ag   8  -0.00154     0.00423    -0.00688    -0.02184     0.02745     0.03623
 PZ Ag   8   0.02021     0.01305    -0.03429     0.02394     0.02830     0.01328
 Z2 Ag   8   0.13546     0.08342    -0.05521     0.17915     0.14508    -0.04776
 X2 Ag   8  -0.12623     0.21033    -0.10956     0.07910    -0.02239    -0.10479
 XY Ag   8  -0.00716    -0.08434    -0.06889    -0.00869     0.17975     0.06240
 XZ Ag   8   0.14358     0.07969     0.07709    -0.00611     0.01983     0.01406
 YZ Ag   8   0.01852     0.07075     0.15272    -0.01898    -0.16809     0.13866
  
  S Ag   9  -0.02515     0.02914     0.00254    -0.01176    -0.00697    -0.01831
 PX Ag   9   0.01263    -0.02530     0.01933    -0.00772     0.02079     0.00967
 PY Ag   9  -0.00153     0.00423     0.00688     0.02184     0.02745    -0.03623
 PZ Ag   9   0.02021     0.01305     0.03429    -0.02394     0.02830    -0.01328
 Z2 Ag   9   0.13546     0.08342     0.05521    -0.17915     0.14508     0.04776
 X2 Ag   9  -0.12623     0.21033     0.10956    -0.07910    -0.02239     0.10479
 XY Ag   9   0.00716     0.08434    -0.06889    -0.00869    -0.17975     0.06240
 XZ Ag   9  -0.14358    -0.07969     0.07709    -0.00611    -0.01983     0.01406
 YZ Ag   9   0.01852     0.07075    -0.15272     0.01898    -0.16809    -0.13866
  
  S Ag  10   0.00187    -0.02715     0.00000    -0.00000    -0.00069    -0.00000
 PX Ag  10   0.00000    -0.00000    -0.00465     0.02851    -0.00000    -0.03057
 PY Ag  10   0.00297     0.00103     0.00000    -0.00000    -0.00948     0.00000
 PZ Ag  10   0.02364     0.00001     0.00000    -0.00000    -0.02676     0.00000
 Z2 Ag  10   0.09975    -0.02036     0.00000    -0.00000    -0.15018     0.00000
 X2 Ag  10   0.05190    -0.05330     0.00000    -0.00000    -0.01551     0.00000
 XY Ag  10  -0.00000     0.00000     0.03149    -0.18840     0.00000     0.33047
 XZ Ag  10   0.00000    -0.00000     0.00368    -0.00987    -0.00000    -0.11788
 YZ Ag  10  -0.23674    -0.03896    -0.00000     0.00000     0.10816    -0.00000
  
  S Ag  11   0.02077     0.03011    -0.01169     0.00182    -0.00624    -0.00357
 PX Ag  11  -0.01507     0.00858    -0.02309     0.03254    -0.00597     0.03153
 PY Ag  11  -0.01360     0.00447    -0.01383    -0.04720    -0.02147    -0.04789
 PZ Ag  11  -0.02870    -0.02672    -0.00848     0.00150    -0.00550     0.00574
 Z2 Ag  11   0.16807     0.05355     0.04153    -0.00708     0.02754    -0.01110
 X2 Ag  11  -0.02388    -0.05321     0.08541     0.29064     0.04551     0.03710
 XY Ag  11  -0.06825    -0.09647     0.05608    -0.18509     0.03266    -0.01352
 XZ Ag  11   0.05410    -0.20570     0.05474     0.01188     0.11295    -0.08689
 YZ Ag  11   0.08010    -0.10996     0.10640    -0.05446    -0.08127     0.12367
  
  S Ag  12   0.00331    -0.02389     0.00000    -0.00000    -0.00024    -0.00000
 PX Ag  12  -0.00000     0.00000     0.01859    -0.10935     0.00000    -0.03168
 PY Ag  12  -0.01259    -0.03895     0.00000    -0.00000     0.03603     0.00000
 PZ Ag  12   0.00415     0.01183     0.00000     0.00000     0.10566     0.00000
 Z2 Ag  12   0.22590     0.05615    -0.00000    -0.00000     0.15855    -0.00000
 X2 Ag  12  -0.01396     0.13654    -0.00000     0.00000     0.06387     0.00000
 XY Ag  12  -0.00000    -0.00000    -0.04252     0.23734     0.00000     0.08317
 XZ Ag  12  -0.00000     0.00000     0.01240    -0.05295    -0.00000    -0.20030
 YZ Ag  12   0.00761     0.10173    -0.00000     0.00000    -0.18094    -0.00000
  
  S Ag  13   0.02077     0.03011     0.01169    -0.00182    -0.00624     0.00357
 PX Ag  13   0.01507    -0.00858    -0.02309     0.03254     0.00597     0.03153
 PY Ag  13  -0.01360     0.00447     0.01383     0.04720    -0.02147     0.04789
 PZ Ag  13  -0.02870    -0.02672     0.00848    -0.00150    -0.00550    -0.00574
 Z2 Ag  13   0.16807     0.05355    -0.04153     0.00708     0.02754     0.01110
 X2 Ag  13  -0.02388    -0.05321    -0.08541    -0.29064     0.04551    -0.03710
 XY Ag  13   0.06825     0.09647     0.05608    -0.18509    -0.03266    -0.01352
 XZ Ag  13  -0.05410     0.20570     0.05474     0.01188    -0.11295    -0.08689
 YZ Ag  13   0.08010    -0.10996    -0.10640     0.05446    -0.08127    -0.12367
  
  S Ag  14   0.00187    -0.02401    -0.00001    -0.00006    -0.00033    -0.00026
 PX Ag  14  -0.00503    -0.03235     0.04516     0.04552    -0.00047     0.01828
 PY Ag  14   0.00246     0.01796     0.01466     0.08944     0.03721     0.02941
 PZ Ag  14   0.00400     0.01414     0.08992    -0.01517    -0.05230     0.00461
 Z2 Ag  14   0.23745     0.06280     0.13335    -0.02266    -0.07396    -0.00905
 X2 Ag  14   0.04945    -0.06088    -0.09284    -0.18434    -0.04424    -0.08423
 XY Ag  14  -0.02557     0.11720     0.00571    -0.11692    -0.06010    -0.02320
 XZ Ag  14  -0.00216     0.08340    -0.12601     0.04640     0.08968     0.09168
 YZ Ag  14   0.02793    -0.04347     0.09298     0.02839    -0.03050     0.20994
  
  S Ag  15   0.00187    -0.02401     0.00001     0.00006    -0.00033     0.00026
 PX Ag  15   0.00503     0.03235     0.04516     0.04552     0.00047     0.01828
 PY Ag  15   0.00246     0.01796    -0.01466    -0.08944     0.03721    -0.02941
 PZ Ag  15   0.00400     0.01414    -0.08992     0.01517    -0.05230    -0.00461
 Z2 Ag  15   0.23745     0.06280    -0.13335     0.02266    -0.07396     0.00905
 X2 Ag  15   0.04945    -0.06088     0.09284     0.18434    -0.04424     0.08423
 XY Ag  15   0.02557    -0.11720     0.00571    -0.11692     0.06010    -0.02320
 XZ Ag  15   0.00216    -0.08340    -0.12601     0.04640    -0.08968     0.09168
 YZ Ag  15   0.02793    -0.04347    -0.09298    -0.02839    -0.03050    -0.20994
  
  S Ag  16   0.01206     0.02822    -0.00000     0.00000     0.01423     0.00000
 PX Ag  16   0.00000     0.00000    -0.02655    -0.05259     0.00000    -0.05594
 PY Ag  16   0.01930    -0.00901     0.00000    -0.00000    -0.03152     0.00000
 PZ Ag  16  -0.03043    -0.02723     0.00000     0.00000     0.00880    -0.00000
 Z2 Ag  16   0.17549     0.05588    -0.00000    -0.00000    -0.04609     0.00000
 X2 Ag  16   0.04986     0.10494    -0.00000     0.00000     0.10878    -0.00000
 XY Ag  16   0.00000    -0.00000     0.08107     0.33772    -0.00000     0.08000
 XZ Ag  16  -0.00000     0.00000    -0.15313    -0.01859     0.00000     0.10385
 YZ Ag  16  -0.08284     0.23146    -0.00000     0.00000     0.12154    -0.00000
  
  S Ag  17   0.02707     0.02977     0.01204    -0.00218     0.00780     0.00217
 PX Ag  17  -0.00888     0.02432    -0.00767     0.01937     0.02145     0.00849
 PY Ag  17  -0.00948     0.01410     0.01585    -0.03412    -0.03533    -0.00879
 PZ Ag  17  -0.00554     0.00020    -0.02820     0.00471    -0.01663     0.00526
 Z2 Ag  17  -0.01823    -0.22607    -0.10913     0.01894    -0.06772     0.00628
 X2 Ag  17  -0.00770     0.03047    -0.08852    -0.06771     0.07152    -0.01798
 XY Ag  17  -0.09421     0.04411    -0.00776     0.04904    -0.07584     0.01175
 XZ Ag  17  -0.01514    -0.09942    -0.00355    -0.09099    -0.16704    -0.07238
 YZ Ag  17  -0.01340    -0.06275    -0.13795     0.18199     0.20296     0.18051
  
  S Ag  18   0.02707     0.02977    -0.01204     0.00218     0.00780    -0.00217
 PX Ag  18   0.00888    -0.02432    -0.00767     0.01937    -0.02145     0.00849
 PY Ag  18  -0.00948     0.01410    -0.01585     0.03412    -0.03533     0.00879
 PZ Ag  18  -0.00554     0.00020     0.02820    -0.00471    -0.01663    -0.00526
 Z2 Ag  18  -0.01823    -0.22607     0.10913    -0.01894    -0.06772    -0.00628
 X2 Ag  18  -0.00770     0.03047     0.08852     0.06771     0.07152     0.01798
 XY Ag  18   0.09421    -0.04411    -0.00776     0.04904     0.07584     0.01175
 XZ Ag  18   0.01514     0.09942    -0.00355    -0.09099     0.16704    -0.07238
 YZ Ag  18  -0.01340    -0.06275     0.13795    -0.18199     0.20296    -0.18051
  
  S Ag  19   0.02047     0.02912    -0.00000     0.00000    -0.01329    -0.00000
 PX Ag  19   0.00000    -0.00000    -0.05284    -0.02713     0.00000    -0.02359
 PY Ag  19   0.01665    -0.02754     0.00000    -0.00000     0.00106     0.00000
 PZ Ag  19  -0.01310    -0.00185    -0.00000     0.00000     0.03274    -0.00000
 Z2 Ag  19  -0.00174    -0.22717     0.00000    -0.00000     0.12498    -0.00000
 X2 Ag  19   0.09791    -0.04964     0.00000    -0.00000    -0.05875     0.00000
 XY Ag  19  -0.00000     0.00000     0.09822    -0.11430     0.00000    -0.00188
 XZ Ag  19   0.00000     0.00000     0.32455     0.12910    -0.00000     0.18717
 YZ Ag  19   0.06725     0.12791     0.00000     0.00000    -0.07867     0.00000
  
  S Ag  20  -0.00231    -0.02741     0.00000    -0.00000    -0.00049     0.00000
 PX Ag  20   0.00000     0.00000     0.02810    -0.00465     0.00000    -0.00468
 PY Ag  20  -0.00459    -0.00120    -0.00000     0.00000     0.02848    -0.00000
 PZ Ag  20   0.00985     0.00166    -0.00000    -0.00000     0.00020    -0.00000
 Z2 Ag  20  -0.11526     0.06250    -0.00000     0.00000    -0.00080    -0.00000
 X2 Ag  20  -0.00349     0.00103     0.00000    -0.00000    -0.07125     0.00000
 XY Ag  20   0.00000    -0.00000    -0.07082     0.01261    -0.00000     0.00692
 XZ Ag  20  -0.00000    -0.00000    -0.17009     0.02813    -0.00000     0.06178
 YZ Ag  20   0.05055     0.01137     0.00000    -0.00000    -0.17054     0.00000




    ROOT NO.   31          32          33          34          35          36

           -14.29911   -14.29877   -14.28625   -14.28602   -14.28489   -14.23822
  
  
  S Ag   1   0.00043    -0.00016    -0.01357     0.00957     0.00039    -0.00033
 PX Ag   1  -0.00033     0.00895    -0.00123    -0.00766    -0.00048     0.00008
 PY Ag   1   0.01207     0.00436     0.00552     0.00533     0.00763    -0.00861
 PZ Ag   1  -0.01669    -0.02863     0.00383     0.00512    -0.00982     0.01204
 Z2 Ag   1  -0.10393    -0.17767    -0.09462    -0.06891     0.18806    -0.03926
 X2 Ag   1  -0.05643     0.06178     0.09932     0.04542     0.11019    -0.01690
 XY Ag   1   0.10475     0.09293    -0.00446    -0.13973     0.03287    -0.02071
 XZ Ag   1  -0.16019    -0.22995    -0.00091    -0.08706    -0.05531     0.02657
 YZ Ag   1  -0.03793    -0.13716     0.10414     0.09890     0.08219    -0.01314
  
  S Ag   2  -0.00075     0.01126    -0.02673    -0.01806    -0.00124    -0.00038
 PX Ag   2   0.00040    -0.02102    -0.00982     0.00920     0.00094    -0.00050
 PY Ag   2   0.02523     0.01871    -0.00436    -0.01725     0.00525    -0.01236
 PZ Ag   2  -0.03682    -0.02622    -0.00351    -0.00888    -0.00969     0.01719
 Z2 Ag   2  -0.11463    -0.03709    -0.07129    -0.08303    -0.11319     0.20753
[...]
    Config     282  -0.05581585  0.00311541
    Config     287   0.05155794  0.00265822
    Config     291  -0.05131057  0.00263277
    Config     298  -0.06192557  0.00383478
    Config     302   0.08716051  0.00759696
    Config     312   0.07231070  0.00522884
    Config     315  -0.04280885  0.00183260
    Config     316  -0.04470741  0.00199875
    Config     319   0.07078383  0.00501035
    Config     320  -0.04630985  0.00214460
    Config     324  -0.04531618  0.00205356
    Config     325   0.04595363  0.00211174
    Config     326  -0.11599129  0.01345398
    Config     328  -0.05372935  0.00288684
    Config     332  -0.04800996  0.00230496
    Config     337  -0.05667286  0.00321181
    Config     341   0.05718906  0.00327059
    Config     343   0.10622851  0.01128450
    Config     347   0.06307821  0.00397886
    Config     357   0.05256650  0.00276324
    Config     362   0.10952276  0.01199523
    Config     366  -0.06984724  0.00487864
    Config     377  -0.07318738  0.00535639
    Config     380  -0.08085608  0.00653771
    Config     383  -0.05313020  0.00282282
    Config     385  -0.07151379  0.00511422
    Config     386   0.09532626  0.00908710
    Config     389  -0.05391477  0.00290680
    Config     390   0.05995494  0.00359459
    Config     397  -0.07406633  0.00548582
    Config     413  -0.10718120  0.01148781
    Config     416   0.06531140  0.00426558
    Config     418  -0.07057378  0.00498066
    Config     430  -0.16826547  0.02831327
    Config     434   0.05950626  0.00354100
    Config     435   0.08585184  0.00737054
    Config     436   0.05837803  0.00340799
    Config     440   0.08053910  0.00648655
    Config     443  -0.07539997  0.00568516
    Config     447  -0.04922409  0.00242301
    Config     454   0.05988202  0.00358586
    Config     455   0.05932054  0.00351893
    Config     464  -0.24106435  0.05811202
    Config     465  -0.06421175  0.00412315
    Config     467   0.04537232  0.00205865
    Config     469   0.08511007  0.00724372
    Config     471  -0.04812414  0.00231593
    Config     474  -0.07938987  0.00630275
    Config     477   0.06231634  0.00388333
    Config     479  -0.07713661  0.00595006
    Config     481   0.16492381  0.02719986
    Config     483  -0.04956738  0.00245693
    Config     484  -0.15102072  0.02280726
    Config     485  -0.06189554  0.00383106
    Config     495   0.14687034  0.02157090
    Config     503   0.07727046  0.00597072
    Config     504   0.06524188  0.00425650
    Config     507   0.06475926  0.00419376
    Config     508  -0.09300855  0.00865059
    Config     514   0.09011934  0.00812150
    Config     517   0.09300552  0.00865003
    Config     518   0.11709364  0.01371092
    Config     520   0.14994668  0.02248401
    Config     522  -0.06646825  0.00441803
    Config     523  -0.04993335  0.00249334
    Config     525  -0.15545299  0.02416563
    Config     530   0.12590980  0.01585328
    Config     531   0.25761176  0.06636382
    Config     532   0.04647999  0.00216039
    Config     537   0.10882653  0.01184321
    Config     539   0.04686727  0.00219654
    Config     543  -0.04984045  0.00248407
    Config     544   0.04482768  0.00200952
    Config     546  -0.04708222  0.00221674
    Config     548   0.07217894  0.00520980
    Config     553  -0.07523975  0.00566102
    Config     554   0.06825619  0.00465891
    Config     555  -0.10963321  0.01201944
    Config     557   0.04518225  0.00204144
    Config     563  -0.05264507  0.00277150
    Config     568  -0.18708680  0.03500147
    Config     572   0.25284661  0.06393141
    Config     573   0.04512849  0.00203658
    Config     580  -0.08084965  0.00653667
    Config     583  -0.11640302  0.01354966
    Config     585  -0.09439609  0.00891062
    Config     586  -0.14550926  0.02117294
    Config     589   0.04713535  0.00222174
    Config     593  -0.08132556  0.00661385
    Config     597  -0.06684866  0.00446874
    Config     605   0.04971388  0.00247147
    Config     607  -0.05495617  0.00302018
    Config     612  -0.05885161  0.00346351
    Config     616   0.04208210  0.00177090
    Config     637  -0.04523881  0.00204655
    Config     671  -0.04326372  0.00187175
    Config     675  -0.04793064  0.00229735
    Config     775  -0.04700846  0.00220980
    Config    1080  -0.04009741  0.00160780
Total percent printed            0.88128811
  
State  500  5.2887     CI coeff  CI percent
    Config     131  -0.04096932  0.00167849
    Config     182   0.04723898  0.00223152
    Config     185  -0.04140312  0.00171422
    Config     194  -0.04494494  0.00202005
    Config     198   0.06577335  0.00432613
    Config     205  -0.08724096  0.00761099
    Config     208   0.05231461  0.00273682
    Config     227  -0.05018971  0.00251901
    Config     257  -0.08579085  0.00736007
    Config     258  -0.06448593  0.00415843
    Config     268   0.05106203  0.00260733
    Config     269   0.05883499  0.00346156
    Config     288  -0.05581515  0.00311533
    Config     292  -0.06094940  0.00371483
    Config     293  -0.04164581  0.00173437
    Config     305   0.05513715  0.00304011
    Config     309  -0.11312671  0.01279765
    Config     310   0.08455520  0.00714958
    Config     314   0.06026562  0.00363195
    Config     318   0.04350015  0.00189226
    Config     322  -0.06532205  0.00426697
    Config     338   0.04620486  0.00213489
    Config     342   0.05107876  0.00260904
    Config     345  -0.09828840  0.00966061
    Config     349  -0.12269626  0.01505437
    Config     350   0.10393718  0.01080294
    Config     351   0.05902881  0.00348440
    Config     356   0.05485076  0.00300861
    Config     358  -0.04116481  0.00169454
    Config     360   0.15690210  0.02461827
    Config     364  -0.07595357  0.00576895
    Config     365  -0.05480969  0.00300410
    Config     370   0.06311438  0.00398342
    Config     372   0.05505976  0.00303158
    Config     376  -0.14850263  0.02205303
    Config     381   0.08689769  0.00755121
    Config     391  -0.05002466  0.00250247
    Config     395   0.06634336  0.00440144
    Config     407  -0.04047412  0.00163815
    Config     409   0.06529106  0.00426292
    Config     412   0.14586403  0.02127632
    Config     417  -0.08621877  0.00743368
    Config     421  -0.07230600  0.00522816
    Config     431  -0.12414502  0.01541199
    Config     432   0.04894548  0.00239566
    Config     433  -0.04344960  0.00188787
    Config     438   0.04990455  0.00249046
    Config     439  -0.08984962  0.00807295
    Config     441   0.07645074  0.00584471
    Config     448   0.07129556  0.00508306
    Config     449  -0.07123408  0.00507429
    Config     457  -0.10104933  0.01021097
    Config     458   0.06526195  0.00425912
    Config     463   0.04781320  0.00228610
    Config     473  -0.09855024  0.00971215
    Config     476  -0.12120231  0.01469000
    Config     486   0.09871470  0.00974459
    Config     488   0.15520128  0.02408744
    Config     489   0.05866209  0.00344124
    Config     490   0.05367058  0.00288053
    Config     491  -0.15926558  0.02536553
    Config     492   0.07152341  0.00511560
    Config     494  -0.07624603  0.00581346
    Config     498   0.08943021  0.00799776
    Config     499  -0.04987465  0.00248748
    Config     500   0.23712439  0.05622797
    Config     502   0.07413700  0.00549630
    Config     506   0.06483402  0.00420345
    Config     512   0.16328576  0.02666224
    Config     513   0.04734726  0.00224176
    Config     515   0.06325875  0.00400167
    Config     521   0.09145622  0.00836424
    Config     526  -0.07446137  0.00554450
    Config     527  -0.05158053  0.00266055
    Config     528  -0.14779653  0.02184381
    Config     529  -0.19209625  0.03690097
    Config     536   0.05484268  0.00300772
    Config     540  -0.09712929  0.00943410
    Config     541   0.05237844  0.00274350
    Config     545   0.04529185  0.00205135
    Config     547   0.10354929  0.01072246
    Config     551  -0.04024240  0.00161945
    Config     559   0.04750706  0.00225692
    Config     560  -0.07184932  0.00516232
    Config     565  -0.05516812  0.00304352
    Config     567  -0.04781028  0.00228582
    Config     570  -0.13119429  0.01721194
    Config     571   0.06442727  0.00415087
    Config     574  -0.08531554  0.00727874
    Config     575  -0.07404859  0.00548319
    Config     576  -0.11457443  0.01312730
    Config     578  -0.27889946  0.07778491
    Config     581   0.07144137  0.00510387
    Config     584   0.15755739  0.02482433
    Config     587  -0.04086461  0.00166992
    Config     590  -0.04635246  0.00214855
    Config     591   0.08774933  0.00769994
    Config     592   0.12585197  0.01583872
    Config     594   0.12191714  0.01486379
    Config     595   0.11895184  0.01414954
    Config     596  -0.06435178  0.00414115
    Config     604  -0.07632870  0.00582607
    Config     606   0.06210608  0.00385716
    Config     631  -0.05489671  0.00301365
    Config     667   0.04134560  0.00170946
    Config     670   0.04573246  0.00209146
    Config    1141  -0.04519234  0.00204235
    Config    1153   0.04391813  0.00192880
Total percent printed            0.87574406
  

 -------------------------------------------------------------------------------
 INDO CISD C.I.=(40,20) C.I.D.=(6,3)
 Ag20



     1SCF WAS SPECIFIED, SO BFGS WAS NOT USED                 
     SCF FIELD WAS ACHIEVED                                   


                              INDO CALCULATION
                                                       MOPAC2016 (Version: 20.173L)
                                                       Mon Jun 29 13:10:58 2020




          FINAL HEAT OF FORMATION =    -265051.48725 KCAL/MOL =-1108975.42264 KJ/MOL


          TOTAL ENERGY            =     -11552.79167 EV
          ELECTRONIC ENERGY       =     -74648.51682 EV  POINT GROUP:     Td  
          CORE-CORE REPULSION     =      63095.72516 EV
          COSMO AREA              =        366.14 SQUARE ANGSTROMS
          COSMO VOLUME            =        515.81 CUBIC ANGSTROMS

          IONIZATION POTENTIAL    =          7.432981 EV
          HOMO LUMO ENERGIES (EV) =         -7.433 -3.060
          NO. OF FILLED LEVELS    =        110
          MOLECULAR WEIGHT        =       2157.3600

          MOLECULAR DIMENSIONS (Angstroms)

            Atom       Atom       Distance
           Ag     4   Ag     1     8.36850
           Ag    20   Ag    10     8.36849
           Ag    19   Ag     2     6.18612


          SCF CALCULATIONS        =          1
 
          WALL-CLOCK TIME         = 10 MINUTES AND 10.121 SECONDS
          COMPUTATION TIME        = 10 MINUTES AND 42.892 SECONDS




   ATOM   CHEMICAL          X               Y               Z
  NUMBER   SYMBOL      (ANGSTROMS)     (ANGSTROMS)     (ANGSTROMS)
 
     1      Ag         -4.18425000  *  -2.41578000  *  -1.70821000  *
     2      Ag         -1.38662000  *  -2.52547000  *  -1.78578000  *
     3      Ag          1.38662000  *  -2.52547000  *  -1.78578000  *
     4      Ag          4.18425000  *  -2.41578000  *  -1.70821000  *
     5      Ag         -2.88043000  *   0.06189000  *  -1.78578000  *
     6      Ag          0.00000000  *   0.00000000  *  -1.89153000  *
     7      Ag          2.88043000  *   0.06189000  *  -1.78578000  *
     8      Ag         -1.49381000  *   2.46358000  *  -1.78578000  *
     9      Ag          1.49381000  *   2.46358000  *  -1.78578000  *
    10      Ag          0.00000000  *   4.83155000  *  -1.70821000  *
    11      Ag         -2.88043000  *  -1.66302000  *   0.65361000  *
    12      Ag          0.00000000  *  -1.78335000  *   0.63051000  *
    13      Ag          2.88043000  *  -1.66302000  *   0.65361000  *
    14      Ag         -1.54443000  *   0.89167000  *   0.63051000  *
    15      Ag          1.54443000  *   0.89167000  *   0.63051000  *
    16      Ag          0.00000000  *   3.32604000  *   0.65361000  *
    17      Ag         -1.49381000  *  -0.86245000  *   2.91795000  *
    18      Ag          1.49381000  *  -0.86245000  *   2.91795000  *
    19      Ag          0.00000000  *   1.72491000  *   2.91795000  *
    20      Ag          0.00000000  *   0.00000000  *   5.12463000  *

                             CARTESIAN COORDINATES

   1   Ag       -4.184250000    -2.415780000    -1.708210000
   2   Ag       -1.386620000    -2.525470000    -1.785780000
   3   Ag        1.386620000    -2.525470000    -1.785780000
   4   Ag        4.184250000    -2.415780000    -1.708210000
   5   Ag       -2.880430000     0.061890000    -1.785780000
   6   Ag        0.000000000     0.000000000    -1.891530000
   7   Ag        2.880430000     0.061890000    -1.785780000
   8   Ag       -1.493810000     2.463580000    -1.785780000
   9   Ag        1.493810000     2.463580000    -1.785780000
  10   Ag        0.000000000     4.831550000    -1.708210000
  11   Ag       -2.880430000    -1.663020000     0.653610000
  12   Ag        0.000000000    -1.783350000     0.630510000
  13   Ag        2.880430000    -1.663020000     0.653610000
  14   Ag       -1.544430000     0.891670000     0.630510000
  15   Ag        1.544430000     0.891670000     0.630510000
  16   Ag        0.000000000     3.326040000     0.653610000
  17   Ag       -1.493810000    -0.862450000     2.917950000
  18   Ag        1.493810000    -0.862450000     2.917950000
  19   Ag        0.000000000     1.724910000     2.917950000
  20   Ag        0.000000000     0.000000000     5.124630000


           Empirical Formula: Ag20  =    20 atoms



      MOLECULAR POINT GROUP   :   Td  


                  EIGENVALUES  
 -18.94750 -16.33409 -16.33332 -16.33324 -15.50241 -15.50225 -15.40306 -15.36032
 -15.35947 -15.35906 -15.09436 -15.09353 -15.09311 -15.00272 -14.77762 -14.77746
 -14.73740 -14.73725 -14.73598 -14.69362 -14.69283 -14.69271 -14.42943 -14.42901
 -14.42847 -14.41916 -14.39729 -14.39693 -14.39550 -14.29929 -14.29911 -14.29877
 -14.28625 -14.28602 -14.28489 -14.23822 -14.23799 -14.04871 -14.04751 -13.91887
 -13.91712 -13.91692 -13.89062 -13.89044 -13.82744 -13.82684 -13.82682 -13.77706
 -13.58772 -13.58671 -13.58639 -13.48854 -13.48663 -13.48643 -13.47724 -13.47715
 -13.47528 -13.43639 -13.43583 -13.43483 -13.42259 -13.42214 -13.35700 -13.35665
 -13.35521 -13.32148 -13.31816 -13.31812 -13.23296 -13.23292 -13.19231 -13.16850
 -13.12598 -13.12461 -13.10042 -13.10002 -13.09949 -13.02370 -13.02366 -13.02290
 -12.97810 -12.97768 -12.97691 -12.87318 -12.87225 -12.87152 -12.71476 -12.71457
 -12.71411 -12.66734 -12.66693 -12.66688 -12.59921 -12.58674 -12.58659 -12.41295
 -12.41292 -12.41178 -12.10525 -12.10302 -12.10244 -11.20478 -11.20395 -11.20384
  -8.05427  -7.62541  -7.62534  -7.62531  -7.43303  -7.43298  -3.06032  -3.06031
  -3.06005  -2.76192  -2.33901  -2.33858  -2.33857  -2.29411  -2.29383  -2.29383
  -1.54790  -1.28789  -1.28779  -1.28764  -0.76571  -0.76557  -0.50353  -0.35680
  -0.35667  -0.35637  -0.08018  -0.08018  -0.07988   0.32309   0.32327   0.42289
   0.42370   0.42393   0.86250   0.86293   0.86298   0.94257   0.94268   0.94300
   0.99015   1.76151   1.76165   1.89067   1.89071   1.89072   2.08602   2.08626
   2.08695   2.09731   2.09736   2.09779   2.17104   2.17186   2.17189   2.19509
   2.31353   2.41469   2.41544   2.41594   2.41969   2.41977   2.77625   2.77640
   2.77648   2.81940   2.81971   2.82035   2.83413   2.83417   3.84283   3.84326
   3.84330   4.39347   4.39406   4.39411


              NET ATOMIC CHARGES AND DIPOLE CONTRIBUTIONS

  ATOM NO.   TYPE          CHARGE      No. of ELECS.   s-Pop       p-Pop       d-Pop       
    1         Ag           0.073719       10.9263     0.87861     0.18491     9.86276
    2         Ag          -0.022303       11.0223     0.74785     0.48898     9.78547
    3         Ag          -0.022303       11.0223     0.74785     0.48898     9.78547
    4         Ag           0.073719       10.9263     0.87861     0.18491     9.86276
    5         Ag          -0.022280       11.0223     0.74786     0.48891     9.78551
    6         Ag          -0.006790       11.0068     0.62332     0.63399     9.74948
    7         Ag          -0.022280       11.0223     0.74786     0.48891     9.78551
    8         Ag          -0.022273       11.0223     0.74786     0.48891     9.78550
    9         Ag          -0.022273       11.0223     0.74786     0.48891     9.78550
   10         Ag           0.073720       10.9263     0.87863     0.18490     9.86275
   11         Ag          -0.022282       11.0223     0.74789     0.48889     9.78550
   12         Ag          -0.006822       11.0068     0.62334     0.63398     9.74950
   13         Ag          -0.022282       11.0223     0.74789     0.48889     9.78550
   14         Ag          -0.006826       11.0068     0.62336     0.63396     9.74950
   15         Ag          -0.006826       11.0068     0.62336     0.63396     9.74950
   16         Ag          -0.022327       11.0223     0.74794     0.48889     9.78550
   17         Ag          -0.022334       11.0223     0.74793     0.48892     9.78549
   18         Ag          -0.022334       11.0223     0.74793     0.48892     9.78549
   19         Ag          -0.022330       11.0223     0.74794     0.48890     9.78548
   20         Ag           0.073708       10.9263     0.87858     0.18491     9.86280
 DIPOLE           X         Y         Z       TOTAL
 POINT-CHG.     0.000     0.000    -0.003     0.003
 HYBRID         0.000    -0.000    -0.000     0.000
 SUM            0.000    -0.000    -0.003     0.003


          ATOMIC ORBITAL ELECTRON POPULATIONS

     Atom    s        px        py        pz      x^2-y^2     xz        z^2       yz        xy
    1 Ag   0.87861   0.07919   0.05578   0.04994   1.97266   1.96409   1.97145   1.97263   1.98193
    2 Ag   0.74785   0.27291   0.10865   0.10742   1.96152   1.94682   1.95048   1.95112   1.97554
    3 Ag   0.74785   0.27291   0.10865   0.10742   1.96152   1.94682   1.95048   1.95112   1.97554
    4 Ag   0.87861   0.07919   0.05578   0.04994   1.97266   1.96409   1.97145   1.97263   1.98193
    5 Ag   0.74786   0.14827   0.23325   0.10739   1.96152   1.94784   1.94946   1.96885   1.95783
    6 Ag   0.62332   0.24989   0.24990   0.13420   1.95459   1.94079   1.94079   1.95665   1.95665
    7 Ag   0.74786   0.14827   0.23325   0.10739   1.96152   1.94784   1.94946   1.96885   1.95783
    8 Ag   0.74786   0.15112   0.23040   0.10739   1.96152   1.95129   1.94602   1.97004   1.95664
    9 Ag   0.74786   0.15112   0.23040   0.10739   1.96152   1.95129   1.94602   1.97004   1.95664
   10 Ag   0.87863   0.04408   0.09089   0.04993   1.97266   1.97513   1.96042   1.98658   1.96796
   11 Ag   0.74789   0.14823   0.12020   0.22045   1.94903   1.96164   1.96684   1.95143   1.95657
   12 Ag   0.62334   0.24983   0.14711   0.23704   1.94492   1.95142   1.95331   1.94410   1.95575
   13 Ag   0.74789   0.14823   0.12020   0.22045   1.94903   1.96164   1.96684   1.95143   1.95657
   14 Ag   0.62336   0.17279   0.22415   0.23702   1.94492   1.95284   1.95189   1.95284   1.94702
   15 Ag   0.62336   0.17279   0.22415   0.23702   1.94492   1.95284   1.95189   1.95284   1.94702
   16 Ag   0.74794   0.10619   0.16226   0.22045   1.94903   1.96944   1.95904   1.95915   1.94885
   17 Ag   0.74793   0.15109   0.12117   0.21666   1.95203   1.96502   1.96727   1.94873   1.95244
   18 Ag   0.74793   0.15109   0.12117   0.21666   1.95203   1.96502   1.96727   1.94873   1.95244
   19 Ag   0.74794   0.10621   0.16605   0.21665   1.95203   1.96839   1.96389   1.95429   1.94688
   20 Ag   0.87858   0.04407   0.04408   0.09676   1.96882   1.98633   1.98633   1.96066   1.96066

 **********************
 *                    *
 * JOB ENDED NORMALLY *
 *                    *
 **********************



 TOTAL JOB TIME:           610.22 SECONDS

 == MOPAC DONE ==


          MOPAC Job: "ag20_cisd.mop" ended normally on Jun 29, 2020, at 13:10.

