 *******************************************************************************
 ** Site#:    0         For non-commercial use only    Version 20.173L 64BITS **
 *******************************************************************************
 ** Cite this program as: MOPAC2016, Version: 20.173L, James J. P. Stewart,   **
 ** Stewart Computational Chemistry, web-site: HTTP://OpenMOPAC.net.          **
 *******************************************************************************
 **                                                                           **
 **                                MOPAC2016                                  **
 **                                                                           **
 *******************************************************************************

                              INDO CALCULATION RESULTS

 *******************************************************************************
 *  CALCULATION DONE:                                Mon Jun 29 13:00:49 2020  *
 *  INDO       - The INDO Hamiltonian to be used
 *  CIS        - C.I. USES 1 ELECTRON EXCITATIONS ONLY
 *  T=         - A TIME OF 172800.0 SECONDS REQUESTED
 *  DUMP=N     - RESTART FILE WRITTEN EVERY 7200.0 SECONDS REQUESTED
 *******************************************************************************
INDO CIS
 P3B2

   ATOM   CHEMICAL          X               Y               Z
  NUMBER   SYMBOL      (ANGSTROMS)     (ANGSTROMS)     (ANGSTROMS)
 
     1       H        -20.60999900     -1.35247000      0.00000000   
     2       H        -20.60999900      1.35247000      0.00000000   
     3       C        -19.76190500     -0.67872000      0.00000000   
     4       C        -19.76190500      0.67872000      0.00000000   
     5       H        -18.72839800     -3.17900600      0.00000000   
     6       H        -18.72839800      3.17900600      0.00000000   
     7       C        -18.36074500     -1.08476800      0.00000000   
     8       C        -18.36074500      1.08476800      0.00000000   
     9       C        -17.94746800     -2.42395100      0.00000000   
    10       C        -17.94746800      2.42395100      0.00000000   
    11       N        -17.53382700      0.00000000      0.00000000   
    12       H        -16.85870100     -5.12242400      0.00000000   
    13       H        -16.85870100      5.12242400      0.00000000   
    14       C        -16.63970600     -2.90227300      0.00000000   
    15       C        -16.63970600      2.90227300      0.00000000   
    16       C        -16.19700500     -4.26642200      0.00000000   
    17       C        -16.19700500      4.26642200      0.00000000   
    18       H        -15.51819900     -1.10888000      0.00000000   
    19       H        -15.51819900      1.10888000      0.00000000   
    20       N        -15.50659900     -2.12318100      0.00000000   
    21       N        -15.50659900      2.12318100      0.00000000   
    22       C        -14.82432700     -4.26765400      0.00000000   
    23       C        -14.82432700      4.26765400      0.00000000   
    24       C        -14.37853500     -2.90375100      0.00000000   
    25       C        -14.37853500      2.90375100      0.00000000   
    26       H        -14.16278800     -5.12360800      0.00000000   
    27       H        -14.16278800      5.12360800      0.00000000   
    28       N        -13.42909300      0.00000000      0.00000000   
    29       C        -13.06266000     -2.43829500      0.00000000   
    30       C        -13.06266000      2.43829500      0.00000000   
    31       C        -12.63763700     -1.11177200      0.00000000   
    32       C        -12.63763700      1.11177200      0.00000000   
    33       H        -12.27758100     -3.18830200      0.00000000   
    34       H        -12.27758100      3.18830200      0.00000000   
    35       C        -11.22402600     -0.72009900      0.00000000   
    36       C        -11.22402600      0.72009900      0.00000000   
    37       N        -10.14116700     -1.45310400      0.00000000   
    38       N        -10.14116700      1.45310400      0.00000000   
    39       C         -8.97022800     -0.72764900      0.00000000   
    40       C         -8.97022800      0.72764900      0.00000000   
    41       H         -7.75267500     -2.49975700      0.00000000   
    42       H         -7.75267500      2.49975700      0.00000000   
    43       C         -7.75245200     -1.41510500      0.00000000   
    44       C         -7.75245200      1.41510500      0.00000000   
    45       C         -6.53408000     -0.72779400      0.00000000   
    46       C         -6.53408000      0.72779400      0.00000000   
    47       N         -5.36366600     -1.45294600      0.00000000   
    48       N         -5.36366600      1.45294600      0.00000000   
    49       C         -4.28048600     -0.71964600      0.00000000   
    50       C         -4.28048600      0.71964600      0.00000000   
    51       H         -3.23117500     -3.18704200      0.00000000   
    52       H         -3.23117500      3.18704200      0.00000000   
    53       C         -2.86776700     -1.11135000      0.00000000   
    54       C         -2.86776700      1.11135000      0.00000000   
    55       C         -2.44363800     -2.43947800      0.00000000   
    56       C         -2.44363800      2.43947800      0.00000000   
    57       N         -2.07550900      0.00000000      0.00000000   
    58       H         -1.34840700     -5.12810700      0.00000000   
    59       H         -1.34840700      5.12810700      0.00000000   
    60       C         -1.13105700     -2.90924600      0.00000000   
    61       C         -1.13105700      2.90924600      0.00000000   
    62       C         -0.68646500     -4.27250900      0.00000000   
    63       C         -0.68646500      4.27250900      0.00000000   
    64       N          0.00000000     -2.12874700      0.00000000   
    65       H          0.00000000     -1.11548500      0.00000000   
    66       H          0.00000000      1.11548500      0.00000000   
    67       N          0.00000000      2.12874700      0.00000000   
    68       C          0.68646500     -4.27250900      0.00000000   
    69       C          0.68646500      4.27250900      0.00000000   
    70       C          1.13105700     -2.90924600      0.00000000   
    71       C          1.13105700      2.90924600      0.00000000   
    72       H          1.34840700     -5.12810700      0.00000000   
    73       H          1.34840700      5.12810700      0.00000000   
    74       N          2.07550900      0.00000000      0.00000000   
    75       C          2.44363800     -2.43947800      0.00000000   
    76       C          2.44363800      2.43947800      0.00000000   
    77       C          2.86776700     -1.11135000      0.00000000   
    78       C          2.86776700      1.11135000      0.00000000   
    79       H          3.23117500     -3.18704200      0.00000000   
    80       H          3.23117500      3.18704200      0.00000000   
    81       C          4.28048600     -0.71964600      0.00000000   
    82       C          4.28048600      0.71964600      0.00000000   
    83       N          5.36366600     -1.45294600      0.00000000   
    84       N          5.36366600      1.45294600      0.00000000   
    85       C          6.53408000     -0.72779400      0.00000000   
    86       C          6.53408000      0.72779400      0.00000000   
    87       C          7.75245200     -1.41510500      0.00000000   
    88       C          7.75245200      1.41510500      0.00000000   
    89       H          7.75267500     -2.49975700      0.00000000   
    90       H          7.75267500      2.49975700      0.00000000   
    91       C          8.97022800     -0.72764900      0.00000000   
    92       C          8.97022800      0.72764900      0.00000000   
    93       N         10.14116700     -1.45310400      0.00000000   
    94       N         10.14116700      1.45310400      0.00000000   
    95       C         11.22402600     -0.72009900      0.00000000   
    96       C         11.22402600      0.72009900      0.00000000   
    97       H         12.27758100     -3.18830200      0.00000000   
    98       H         12.27758100      3.18830200      0.00000000   
    99       C         12.63763700     -1.11177200      0.00000000   
   100       C         12.63763700      1.11177200      0.00000000   
   101       C         13.06266000     -2.43829500      0.00000000   
   102       C         13.06266000      2.43829500      0.00000000   
   103       N         13.42909300      0.00000000      0.00000000   
   104       H         14.16278800     -5.12360800      0.00000000   
   105       H         14.16278800      5.12360800      0.00000000   
   106       C         14.37853500     -2.90375100      0.00000000   
   107       C         14.37853500      2.90375100      0.00000000   
   108       C         14.82432700     -4.26765400      0.00000000   
   109       C         14.82432700      4.26765400      0.00000000   
   110       N         15.50659900     -2.12318100      0.00000000   
   111       N         15.50659900      2.12318100      0.00000000   
   112       H         15.51819900     -1.10888000      0.00000000   
   113       H         15.51819900      1.10888000      0.00000000   
   114       C         16.19700500     -4.26642200      0.00000000   
   115       C         16.19700500      4.26642200      0.00000000   
   116       C         16.63970600     -2.90227300      0.00000000   
   117       C         16.63970600      2.90227300      0.00000000   
   118       H         16.85870100     -5.12242400      0.00000000   
   119       H         16.85870100      5.12242400      0.00000000   
   120       N         17.53382700      0.00000000      0.00000000   
   121       C         17.94746800     -2.42395100      0.00000000   
   122       C         17.94746800      2.42395100      0.00000000   
   123       C         18.36074500     -1.08476800      0.00000000   
   124       C         18.36074500      1.08476800      0.00000000   
   125       H         18.72839800     -3.17900600      0.00000000   
   126       H         18.72839800      3.17900600      0.00000000   
   127       C         19.76190500     -0.67872000      0.00000000   
   128       C         19.76190500      0.67872000      0.00000000   
   129       H         20.60999900     -1.35247000      0.00000000   
   130       H         20.60999900      1.35247000      0.00000000   
 


          CARTESIAN COORDINATES 

    NO.       ATOM           X           Y           Z

     1         H        -20.6100     -1.3525      0.0000
     2         H        -20.6100      1.3525      0.0000
     3         C        -19.7619     -0.6787      0.0000
     4         C        -19.7619      0.6787      0.0000
     5         H        -18.7284     -3.1790      0.0000
     6         H        -18.7284      3.1790      0.0000
     7         C        -18.3607     -1.0848      0.0000
     8         C        -18.3607      1.0848      0.0000
     9         C        -17.9475     -2.4240      0.0000
    10         C        -17.9475      2.4240      0.0000
    11         N        -17.5338      0.0000      0.0000
    12         H        -16.8587     -5.1224      0.0000
    13         H        -16.8587      5.1224      0.0000
    14         C        -16.6397     -2.9023      0.0000
    15         C        -16.6397      2.9023      0.0000
    16         C        -16.1970     -4.2664      0.0000
    17         C        -16.1970      4.2664      0.0000
    18         H        -15.5182     -1.1089      0.0000
    19         H        -15.5182      1.1089      0.0000
    20         N        -15.5066     -2.1232      0.0000
    21         N        -15.5066      2.1232      0.0000
    22         C        -14.8243     -4.2677      0.0000
    23         C        -14.8243      4.2677      0.0000
    24         C        -14.3785     -2.9038      0.0000
    25         C        -14.3785      2.9038      0.0000
    26         H        -14.1628     -5.1236      0.0000
    27         H        -14.1628      5.1236      0.0000
    28         N        -13.4291      0.0000      0.0000
    29         C        -13.0627     -2.4383      0.0000
    30         C        -13.0627      2.4383      0.0000
    31         C        -12.6376     -1.1118      0.0000
    32         C        -12.6376      1.1118      0.0000
    33         H        -12.2776     -3.1883      0.0000
    34         H        -12.2776      3.1883      0.0000
    35         C        -11.2240     -0.7201      0.0000
    36         C        -11.2240      0.7201      0.0000
    37         N        -10.1412     -1.4531      0.0000
    38         N        -10.1412      1.4531      0.0000
    39         C         -8.9702     -0.7276      0.0000
    40         C         -8.9702      0.7276      0.0000
    41         H         -7.7527     -2.4998      0.0000
    42         H         -7.7527      2.4998      0.0000
    43         C         -7.7525     -1.4151      0.0000
    44         C         -7.7525      1.4151      0.0000
    45         C         -6.5341     -0.7278      0.0000
    46         C         -6.5341      0.7278      0.0000
    47         N         -5.3637     -1.4529      0.0000
    48         N         -5.3637      1.4529      0.0000
    49         C         -4.2805     -0.7196      0.0000
    50         C         -4.2805      0.7196      0.0000
    51         H         -3.2312     -3.1870      0.0000
    52         H         -3.2312      3.1870      0.0000
    53         C         -2.8678     -1.1114      0.0000
    54         C         -2.8678      1.1114      0.0000
    55         C         -2.4436     -2.4395      0.0000
    56         C         -2.4436      2.4395      0.0000
    57         N         -2.0755      0.0000      0.0000
    58         H         -1.3484     -5.1281      0.0000
    59         H         -1.3484      5.1281      0.0000
    60         C         -1.1311     -2.9092      0.0000
    61         C         -1.1311      2.9092      0.0000
    62         C         -0.6865     -4.2725      0.0000
    63         C         -0.6865      4.2725      0.0000
    64         N          0.0000     -2.1287      0.0000
    65         H          0.0000     -1.1155      0.0000
    66         H          0.0000      1.1155      0.0000
    67         N          0.0000      2.1287      0.0000
    68         C          0.6865     -4.2725      0.0000
    69         C          0.6865      4.2725      0.0000
    70         C          1.1311     -2.9092      0.0000
    71         C          1.1311      2.9092      0.0000
    72         H          1.3484     -5.1281      0.0000
    73         H          1.3484      5.1281      0.0000
    74         N          2.0755      0.0000      0.0000
    75         C          2.4436     -2.4395      0.0000
    76         C          2.4436      2.4395      0.0000
    77         C          2.8678     -1.1114      0.0000
    78         C          2.8678      1.1114      0.0000
    79         H          3.2312     -3.1870      0.0000
    80         H          3.2312      3.1870      0.0000
    81         C          4.2805     -0.7196      0.0000
    82         C          4.2805      0.7196      0.0000
    83         N          5.3637     -1.4529      0.0000
    84         N          5.3637      1.4529      0.0000
    85         C          6.5341     -0.7278      0.0000
    86         C          6.5341      0.7278      0.0000
    87         C          7.7525     -1.4151      0.0000
    88         C          7.7525      1.4151      0.0000
    89         H          7.7527     -2.4998      0.0000
    90         H          7.7527      2.4998      0.0000
    91         C          8.9702     -0.7276      0.0000
    92         C          8.9702      0.7276      0.0000
    93         N         10.1412     -1.4531      0.0000
    94         N         10.1412      1.4531      0.0000
    95         C         11.2240     -0.7201      0.0000
    96         C         11.2240      0.7201      0.0000
    97         H         12.2776     -3.1883      0.0000
    98         H         12.2776      3.1883      0.0000
    99         C         12.6376     -1.1118      0.0000
   100         C         12.6376      1.1118      0.0000
   101         C         13.0627     -2.4383      0.0000
   102         C         13.0627      2.4383      0.0000
   103         N         13.4291      0.0000      0.0000
   104         H         14.1628     -5.1236      0.0000
   105         H         14.1628      5.1236      0.0000
   106         C         14.3785     -2.9038      0.0000
   107         C         14.3785      2.9038      0.0000
   108         C         14.8243     -4.2677      0.0000
   109         C         14.8243      4.2677      0.0000
   110         N         15.5066     -2.1232      0.0000
   111         N         15.5066      2.1232      0.0000
   112         H         15.5182     -1.1089      0.0000
   113         H         15.5182      1.1089      0.0000
   114         C         16.1970     -4.2664      0.0000
   115         C         16.1970      4.2664      0.0000
   116         C         16.6397     -2.9023      0.0000
   117         C         16.6397      2.9023      0.0000
   118         H         16.8587     -5.1224      0.0000
   119         H         16.8587      5.1224      0.0000
   120         N         17.5338      0.0000      0.0000
   121         C         17.9475     -2.4240      0.0000
   122         C         17.9475      2.4240      0.0000
   123         C         18.3607     -1.0848      0.0000
   124         C         18.3607      1.0848      0.0000
   125         H         18.7284     -3.1790      0.0000
   126         H         18.7284      3.1790      0.0000
   127         C         19.7619     -0.6787      0.0000
   128         C         19.7619      0.6787      0.0000
   129         H         20.6100     -1.3525      0.0000
   130         H         20.6100      1.3525      0.0000

           Empirical Formula: C72 H38 N20  =   130 atoms



      MOLECULAR POINT GROUP   :   D2h 


      RHF CALCULATION, NO. OF DOUBLY OCCUPIED LEVELS = 213

 WARNING: INDO only performs single-point calculations

 Summary of symmetry occupancy in each shell:

 SHELL     
    1  213
    v  193
 TOTAL 406




    ROOT NO.    1           2           3           4           5           6

           -48.98030   -48.87070   -48.85342   -48.30344   -48.22572   -48.17405
  
  
  S  H   1   0.00282    -0.01115     0.01104     0.00633     0.00000     0.00014
  
  S  H   2   0.00282    -0.01115     0.01104     0.00633    -0.00000    -0.00014
  
  S  C   3   0.01253    -0.04959     0.04909     0.02801     0.00000     0.00030
 PX  C   3   0.00626    -0.02471     0.02445     0.01373     0.00000     0.00019
 PY  C   3   0.00334    -0.01327     0.01315     0.00766    -0.00000    -0.00019
 PZ  C   3   0.00000    -0.00000     0.00000     0.00000    -0.00000     0.00000
  
  S  C   4   0.01253    -0.04959     0.04909     0.02801    -0.00000    -0.00030
 PX  C   4   0.00626    -0.02471     0.02445     0.01373    -0.00000    -0.00019
 PY  C   4  -0.00334     0.01327    -0.01315    -0.00766    -0.00000    -0.00019
 PZ  C   4   0.00000     0.00000    -0.00000    -0.00000    -0.00000     0.00000
  
  S  H   5   0.00490    -0.01890     0.01864     0.00916     0.00000     0.00149
  
  S  H   6   0.00490    -0.01890     0.01864     0.00916    -0.00000    -0.00149
  
  S  C   7   0.02114    -0.08267     0.08169     0.04384     0.00000     0.00208
 PX  C   7   0.00326    -0.01222     0.01199     0.00491     0.00000     0.00107
 PY  C   7   0.00581    -0.02316     0.02296     0.01366    -0.00000    -0.00093
 PZ  C   7   0.00000    -0.00000     0.00000     0.00000     0.00000    -0.00000
  
  S  C   8   0.02114    -0.08267     0.08169     0.04384    -0.00000    -0.00208
 PX  C   8   0.00326    -0.01222     0.01199     0.00491    -0.00000    -0.00107
 PY  C   8  -0.00581     0.02316    -0.02296    -0.01366    -0.00000    -0.00093
 PZ  C   8  -0.00000     0.00000    -0.00000    -0.00000     0.00000    -0.00000
  
  S  C   9   0.01708    -0.06558     0.06461     0.03103     0.00000     0.00507
 PX  C   9   0.00704    -0.02651     0.02604     0.01107     0.00000     0.00288
 PY  C   9   0.00228    -0.00902     0.00893     0.00516    -0.00000    -0.00025
 PZ  C   9   0.00000     0.00000    -0.00000    -0.00000     0.00000     0.00000
  
  S  C  10   0.01708    -0.06558     0.06461     0.03103    -0.00000    -0.00507
 PX  C  10   0.00704    -0.02651     0.02604     0.01107    -0.00000    -0.00288
 PY  C  10  -0.00228     0.00902    -0.00893    -0.00516    -0.00000    -0.00025
 PZ  C  10  -0.00000     0.00000    -0.00000     0.00000     0.00000     0.00000
  
  S  N  11   0.02596    -0.10116     0.09991     0.05270     0.00000    -0.00000
 PX  N  11  -0.00701     0.02812    -0.02790    -0.01689    -0.00000     0.00000
 PY  N  11  -0.00000     0.00000    -0.00000    -0.00000    -0.00000    -0.00178
 PZ  N  11  -0.00000     0.00000    -0.00000     0.00000     0.00000    -0.00000
  
  S  H  12   0.00633    -0.02407     0.02368     0.01061     0.00000     0.00262
  
  S  H  13   0.00633    -0.02407     0.02368     0.01061    -0.00000    -0.00262
  
  S  C  14   0.04090    -0.15487     0.15223     0.06689     0.00002     0.01563
 PX  C  14   0.01803    -0.06768     0.06644     0.02762     0.00001     0.00733
 PY  C  14   0.00272    -0.01011     0.00991     0.00410     0.00000     0.00035
 PZ  C  14  -0.00000     0.00000    -0.00000    -0.00000    -0.00000    -0.00000
  
  S  C  15   0.04090    -0.15487     0.15223     0.06689    -0.00002    -0.01563
 PX  C  15   0.01803    -0.06768     0.06644     0.02762    -0.00001    -0.00733
 PY  C  15  -0.00272     0.01011    -0.00991    -0.00410     0.00000     0.00035
 PZ  C  15   0.00000    -0.00000     0.00000     0.00000     0.00000    -0.00000
  
  S  C  16   0.02932    -0.11108     0.10920     0.04800     0.00001     0.01198
 PX  C  16   0.00856    -0.03227     0.03170     0.01350     0.00000     0.00352
 PY  C  16   0.01466    -0.05546     0.05451     0.02375     0.00001     0.00586
 PZ  C  16  -0.00000     0.00000    -0.00000    -0.00000    -0.00000    -0.00000
  
  S  C  17   0.02932    -0.11108     0.10920     0.04800    -0.00001    -0.01198
 PX  C  17   0.00856    -0.03227     0.03170     0.01350    -0.00000    -0.00352
 PY  C  17  -0.01466     0.05546    -0.05451    -0.02375     0.00001     0.00586
 PZ  C  17  -0.00000     0.00000    -0.00000    -0.00000     0.00000     0.00000
  
  S  H  18   0.02224    -0.08161     0.07982     0.02941     0.00001     0.00635
  
  S  H  19   0.02224    -0.08161     0.07982     0.02941    -0.00001    -0.00635
  
  S  N  20   0.05873    -0.21930     0.21509     0.08747     0.00002     0.02138
 PX  N  20   0.00070    -0.00103     0.00076    -0.00339     0.00000    -0.00002
 PY  N  20  -0.01432     0.05467    -0.05381    -0.02450    -0.00001    -0.00652
 PZ  N  20   0.00000    -0.00000    -0.00000    -0.00000    -0.00000    -0.00000
  
  S  N  21   0.05873    -0.21930     0.21509     0.08747    -0.00002    -0.02138
 PX  N  21   0.00070    -0.00103     0.00076    -0.00339    -0.00000     0.00002
 PY  N  21   0.01432    -0.05467     0.05381     0.02450    -0.00001    -0.00652
 PZ  N  21   0.00000    -0.00000     0.00000     0.00000     0.00000    -0.00000
  
  S  C  22   0.02970    -0.11169     0.10967     0.04634     0.00001     0.01196
 PX  C  22  -0.00825     0.03162    -0.03114    -0.01447    -0.00000    -0.00350
 PY  C  22   0.01490    -0.05589     0.05485     0.02283     0.00001     0.00586
 PZ  C  22  -0.00000     0.00000    -0.00000    -0.00000     0.00000    -0.00000
  
  S  C  23   0.02970    -0.11169     0.10967     0.04634    -0.00001    -0.01196
 PX  C  23  -0.00825     0.03162    -0.03114    -0.01447     0.00000     0.00350
 PY  C  23  -0.01490     0.05589    -0.05485    -0.02283     0.00001     0.00586
 PZ  C  23  -0.00000     0.00000    -0.00000    -0.00000     0.00000     0.00000
  
  S  C  24   0.04343    -0.15943     0.15594     0.05739     0.00002     0.01566
 PX  C  24  -0.01695     0.06595    -0.06510    -0.03221    -0.00001    -0.00737
 PY  C  24   0.00374    -0.01183     0.01127    -0.00016     0.00000     0.00035
 PZ  C  24   0.00000     0.00000    -0.00000    -0.00000     0.00000    -0.00000
  
  S  C  25   0.04343    -0.15943     0.15594     0.05739    -0.00002    -0.01566
 PX  C  25  -0.01695     0.06595    -0.06510    -0.03221     0.00001     0.00737
 PY  C  25  -0.00374     0.01183    -0.01127     0.00016     0.00000     0.00035
 PZ  C  25  -0.00000     0.00000    -0.00000     0.00000     0.00000    -0.00000
  
  S  H  26   0.00655    -0.02445     0.02399     0.00981     0.00000     0.00262
  
  S  H  27   0.00655    -0.02445     0.02399     0.00981    -0.00000    -0.00262
  
  S  N  28   0.05022    -0.14332     0.13367    -0.03984    -0.00000     0.00000
 PX  N  28   0.01813    -0.04729     0.04321    -0.02531    -0.00000     0.00000
 PY  N  28  -0.00000     0.00000    -0.00000    -0.00000    -0.00000    -0.00173
 PZ  N  28  -0.00000     0.00000    -0.00000     0.00000    -0.00000    -0.00000
  
  S  C  29   0.02483    -0.07911     0.07548     0.00261     0.00001     0.00502
 PX  C  29  -0.00512     0.02259    -0.02269    -0.01558    -0.00000    -0.00283
 PY  C  29   0.00626    -0.01613     0.01469    -0.00921     0.00000    -0.00021
 PZ  C  29   0.00000    -0.00000     0.00000    -0.00000     0.00000     0.00000
  
  S  C  30   0.02483    -0.07911     0.07548     0.00261    -0.00001    -0.00502
 PX  C  30  -0.00512     0.02259    -0.02269    -0.01558     0.00000     0.00283
 PY  C  30  -0.00626     0.01613    -0.01469     0.00921     0.00000    -0.00021
 PZ  C  30   0.00000    -0.00000    -0.00000     0.00000    -0.00000     0.00000
  
  S  C  31   0.04588    -0.12627     0.11687    -0.04429     0.00000     0.00212
 PX  C  31   0.00179     0.00236    -0.00367    -0.01657     0.00000    -0.00106
 PY  C  31   0.01531    -0.03936     0.03584    -0.02261    -0.00000    -0.00092
 PZ  C  31   0.00000    -0.00000     0.00000    -0.00000     0.00000    -0.00000
  
  S  C  32   0.04588    -0.12627     0.11687    -0.04429    -0.00000    -0.00212
 PX  C  32   0.00179     0.00236    -0.00367    -0.01657    -0.00000     0.00106
 PY  C  32  -0.01531     0.03936    -0.03584     0.02261    -0.00000    -0.00092
 PZ  C  32  -0.00000     0.00000     0.00000     0.00000    -0.00000     0.00000
  
  S  H  33   0.00827    -0.02497     0.02358    -0.00195     0.00000     0.00147
  
  S  H  34   0.00827    -0.02497     0.02358    -0.00195    -0.00000    -0.00147
  
  S  C  35   0.05866    -0.13456     0.11921    -0.10095     0.00001     0.00036
 PX  C  35   0.00368     0.00389    -0.00632    -0.02269     0.00000    -0.00016
 PY  C  35   0.01073    -0.02581     0.02314    -0.01723    -0.00000    -0.00023
 PZ  C  35   0.00000    -0.00000     0.00000    -0.00000     0.00000     0.00000
  
  S  C  36   0.05866    -0.13456     0.11921    -0.10095    -0.00001    -0.00036
 PX  C  36   0.00368     0.00389    -0.00632    -0.02269    -0.00000     0.00016
 PY  C  36  -0.01073     0.02581    -0.02314     0.01723    -0.00000    -0.00023
 PZ  C  36  -0.00000    -0.00000     0.00000    -0.00000     0.00000     0.00000
  
  S  N  37   0.04672    -0.09196     0.07798    -0.09729     0.00002     0.00023
 PX  N  37  -0.00114     0.00710    -0.00729    -0.00097     0.00001    -0.00009
 PY  N  37   0.01919    -0.03799     0.03226    -0.04042     0.00000     0.00002
 PZ  N  37   0.00000    -0.00000     0.00000     0.00000     0.00000     0.00000
  
  S  N  38   0.04672    -0.09196     0.07798    -0.09729    -0.00002    -0.00023
 PX  N  38  -0.00114     0.00710    -0.00729    -0.00097    -0.00001     0.00009
 PY  N  38  -0.01919     0.03799    -0.03226     0.04042     0.00000     0.00002
 PZ  N  38  -0.00000     0.00000    -0.00000     0.00000     0.00000     0.00000
  
  S  C  39   0.05125    -0.07777     0.06013    -0.11072     0.00005     0.00005
 PX  C  39  -0.00665     0.02645    -0.02574     0.01395     0.00003    -0.00003
 PY  C  39   0.00733    -0.01038     0.00779    -0.01562    -0.00003    -0.00003
 PZ  C  39   0.00000    -0.00000     0.00000     0.00000     0.00000     0.00000
  
  S  C  40   0.05125    -0.07777     0.06013    -0.11072    -0.00005    -0.00005
 PX  C  40  -0.00665     0.02645    -0.02574     0.01395    -0.00003     0.00003
 PY  C  40  -0.00733     0.01038    -0.00779     0.01562    -0.00003    -0.00003
 PZ  C  40  -0.00000    -0.00000     0.00000     0.00000     0.00000     0.00000
  
  S  H  41   0.01288    -0.01044     0.00517    -0.02661     0.00019     0.00001
  
  S  H  42   0.01288    -0.01044     0.00517    -0.02661    -0.00019    -0.00001
  
  S  C  43   0.04061    -0.03296     0.01632    -0.08446     0.00034     0.00002
 PX  C  43   0.00625     0.00676    -0.01037    -0.00979     0.00022    -0.00001
 PY  C  43   0.01356    -0.01102     0.00546    -0.02844    -0.00001    -0.00000
 PZ  C  43  -0.00000     0.00000    -0.00000     0.00000     0.00000     0.00000
  
  S  C  44   0.04061    -0.03296     0.01632    -0.08446    -0.00034    -0.00002
 PX  C  44   0.00625     0.00676    -0.01037    -0.00979    -0.00022     0.00001
 PY  C  44  -0.01356     0.01102    -0.00546     0.02844    -0.00001    -0.00000
 PZ  C  44   0.00000    -0.00000     0.00000    -0.00000     0.00000     0.00000
  
  S  C  45   0.09003    -0.03606    -0.00384    -0.16999     0.00092     0.00000
 PX  C  45   0.02942    -0.00202    -0.01172    -0.04833     0.00061    -0.00000
 PY  C  45   0.01210    -0.00526    -0.00006    -0.02278    -0.00059    -0.00000
 PZ  C  45   0.00000     0.00000    -0.00000     0.00000     0.00000     0.00000
  
  S  C  46   0.09003    -0.03606    -0.00384    -0.16999    -0.00092    -0.00000
 PX  C  46   0.02942    -0.00202    -0.01172    -0.04833    -0.00061     0.00000
 PY  C  46  -0.01210     0.00526     0.00006     0.02278    -0.00059    -0.00000
 PZ  C  46   0.00000     0.00000    -0.00000    -0.00000     0.00000     0.00000
  
  S  N  47   0.10532    -0.02920    -0.01815    -0.18374     0.00407     0.00000
 PX  N  47   0.00826     0.00032    -0.00399    -0.00721     0.00155    -0.00000
 PY  N  47   0.04343    -0.01200    -0.00757    -0.07668     0.00039     0.00000
 PZ  N  47  -0.00000     0.00000    -0.00000     0.00000     0.00000    -0.00000
  
  S  N  48   0.10532    -0.02920    -0.01815    -0.18374    -0.00407    -0.00000
 PX  N  48   0.00826     0.00032    -0.00399    -0.00721    -0.00155     0.00000
 PY  N  48  -0.04343     0.01200     0.00757     0.07668     0.00039     0.00000
 PZ  N  48  -0.00000     0.00000     0.00000     0.00000     0.00000    -0.00000
  
  S  C  49   0.15608    -0.03199    -0.03727    -0.22740     0.00639     0.00000
 PX  C  49   0.00605     0.00524    -0.00720     0.02105     0.00290    -0.00000
 PY  C  49   0.03005    -0.00559    -0.00773    -0.04178    -0.00403    -0.00000
 PZ  C  49   0.00000    -0.00000    -0.00000    -0.00000     0.00000    -0.00000
  
  S  C  50   0.15608    -0.03199    -0.03727    -0.22740    -0.00639    -0.00000
 PX  C  50   0.00605     0.00524    -0.00720     0.02105    -0.00290     0.00000
 PY  C  50  -0.03005     0.00559     0.00773     0.04178    -0.00403    -0.00000
 PZ  C  50   0.00000    -0.00000    -0.00000    -0.00000     0.00000    -0.00000
  
  S  H  51   0.03045    -0.00249    -0.01014    -0.01941     0.02593     0.00000
  
  S  H  52   0.03045    -0.00249    -0.01014    -0.01941    -0.02593    -0.00000
  
  S  C  53   0.15028    -0.01874    -0.04578    -0.15123     0.03731     0.00000
 PX  C  53   0.00446     0.00324    -0.00414     0.02150     0.01859     0.00000
 PY  C  53   0.04593    -0.00745    -0.01293    -0.06128    -0.01621    -0.00000
 PZ  C  53   0.00000    -0.00000    -0.00000    -0.00000    -0.00000    -0.00000
  
  S  C  54   0.15028    -0.01874    -0.04578    -0.15123    -0.03731    -0.00000
 PX  C  54   0.00446     0.00324    -0.00414     0.02150    -0.01859    -0.00000
 PY  C  54  -0.04593     0.00745     0.01293     0.06128    -0.01621    -0.00000
 PZ  C  54  -0.00000     0.00000    -0.00000    -0.00000     0.00000    -0.00000
  
  S  C  55   0.09742    -0.00597    -0.03384    -0.04878     0.08872     0.00000
 PX  C  55   0.02940     0.00120    -0.01221     0.00859     0.04997     0.00000
 PY  C  55   0.01880    -0.00301    -0.00528    -0.02479    -0.00388    -0.00000
 PZ  C  55  -0.00000    -0.00000     0.00000     0.00000    -0.00000    -0.00000
  
  S  C  56   0.09742    -0.00597    -0.03384    -0.04878    -0.08872    -0.00000
 PX  C  56   0.02940     0.00120    -0.01221     0.00859    -0.04997    -0.00000
 PY  C  56  -0.01880     0.00301     0.00528     0.02479    -0.00388    -0.00000
 PZ  C  56  -0.00000     0.00000    -0.00000     0.00000     0.00000     0.00000
  
  S  N  57   0.17194    -0.01894    -0.05431    -0.15850    -0.00000     0.00000
 PX  N  57  -0.05526     0.00868     0.01587     0.07174     0.00000    -0.00000
 PY  N  57  -0.00000     0.00000     0.00000     0.00000    -0.03052    -0.00000
 PZ  N  57   0.00000    -0.00000     0.00000    -0.00000    -0.00000    -0.00000
  
  S  H  58   0.03082    -0.00016    -0.01187    -0.00138     0.04603     0.00000
  
  S  H  59   0.03082    -0.00016    -0.01187    -0.00138    -0.04603    -0.00000
  
  S  C  60   0.20087    -0.00192    -0.07637    -0.01646     0.27482     0.00002
 PX  C  60   0.08408     0.00090    -0.03289     0.00762     0.12904     0.00001
 PY  C  60   0.01473    -0.00083    -0.00500    -0.00720     0.00624     0.00000
 PZ  C  60   0.00000     0.00000    -0.00000    -0.00000     0.00000    -0.00000
  
  S  C  61   0.20087    -0.00192    -0.07637    -0.01646    -0.27482    -0.00002
 PX  C  61   0.08408     0.00090    -0.03289     0.00762    -0.12904    -0.00001
 PY  C  61  -0.01473     0.00083     0.00500     0.00720     0.00624     0.00000
 PZ  C  61  -0.00000     0.00000    -0.00000     0.00000     0.00000    -0.00000
  
  S  C  62   0.14129    -0.00033    -0.05452    -0.00277     0.21011     0.00001
 PX  C  62   0.04030     0.00021    -0.01567     0.00181     0.06156     0.00000
 PY  C  62   0.07073    -0.00018    -0.02722    -0.00159     0.10293     0.00001
 PZ  C  62   0.00000     0.00000     0.00000     0.00000     0.00000    -0.00000
  
  S  C  63   0.14129    -0.00033    -0.05452    -0.00277    -0.21011    -0.00001
 PX  C  63   0.04030     0.00021    -0.01567     0.00181    -0.06156    -0.00000
 PY  C  63  -0.07073     0.00018     0.02722     0.00159     0.10293     0.00001
 PZ  C  63   0.00000    -0.00000    -0.00000     0.00000    -0.00000    -0.00000
  
  S  N  64   0.27999    -0.00000    -0.10668    -0.00000     0.37603     0.00002
 PX  N  64   0.00000     0.00126    -0.00000     0.01107     0.00000    -0.00000
 PY  N  64  -0.06896     0.00000     0.02697     0.00000    -0.11438    -0.00001
 PZ  N  64   0.00000    -0.00000     0.00000    -0.00000     0.00000    -0.00000
  
  S  H  65   0.10526    -0.00000    -0.03926    -0.00000     0.11211     0.00001
  
  S  H  66   0.10526    -0.00000    -0.03926    -0.00000    -0.11211    -0.00001
  
  S  N  67   0.27999    -0.00000    -0.10668    -0.00000    -0.37603    -0.00002
 PX  N  67   0.00000     0.00126    -0.00000     0.01107    -0.00000     0.00000
 PY  N  67   0.06896    -0.00000    -0.02697    -0.00000    -0.11438    -0.00001
 PZ  N  67   0.00000    -0.00000    -0.00000     0.00000    -0.00000    -0.00000
  
  S  C  68   0.14129     0.00032    -0.05452     0.00277     0.21011     0.00001
 PX  C  68  -0.04030     0.00021     0.01567     0.00181    -0.06156    -0.00000
 PY  C  68   0.07073     0.00018    -0.02722     0.00159     0.10293     0.00001
 PZ  C  68   0.00000     0.00000     0.00000     0.00000    -0.00000     0.00000
  
  S  C  69   0.14129     0.00032    -0.05452     0.00277    -0.21011    -0.00001
 PX  C  69  -0.04030     0.00021     0.01567     0.00181     0.06156     0.00000
 PY  C  69  -0.07073    -0.00018     0.02722    -0.00159     0.10293     0.00001
 PZ  C  69   0.00000    -0.00000    -0.00000    -0.00000    -0.00000    -0.00000
  
  S  C  70   0.20087     0.00192    -0.07637     0.01646     0.27482     0.00001
 PX  C  70  -0.08408     0.00091     0.03289     0.00762    -0.12904    -0.00001
 PY  C  70   0.01473     0.00083    -0.00500     0.00720     0.00624     0.00000
 PZ  C  70   0.00000    -0.00000    -0.00000     0.00000     0.00000     0.00000
  
  S  C  71   0.20087     0.00192    -0.07637     0.01646    -0.27482    -0.00001
 PX  C  71  -0.08408     0.00091     0.03289     0.00762     0.12904     0.00001
 PY  C  71  -0.01473    -0.00083     0.00500    -0.00720     0.00624     0.00000
 PZ  C  71   0.00000    -0.00000     0.00000     0.00000    -0.00000    -0.00000
  
  S  H  72   0.03082     0.00016    -0.01187     0.00138     0.04603     0.00000
  
  S  H  73   0.03082     0.00016    -0.01187     0.00138    -0.04603    -0.00000
  
  S  N  74   0.17194     0.01894    -0.05431     0.15850    -0.00000    -0.00000
 PX  N  74   0.05526     0.00868    -0.01588     0.07174    -0.00000    -0.00000
 PY  N  74  -0.00000    -0.00000     0.00000    -0.00000    -0.03052    -0.00000
 PZ  N  74   0.00000     0.00000    -0.00000     0.00000    -0.00000     0.00000
  
  S  C  75   0.09742     0.00597    -0.03384     0.04878     0.08872     0.00000
 PX  C  75  -0.02940     0.00120     0.01221     0.00859    -0.04997    -0.00000
 PY  C  75   0.01880     0.00301    -0.00528     0.02479    -0.00388    -0.00000
 PZ  C  75  -0.00000    -0.00000     0.00000    -0.00000    -0.00000     0.00000
  
  S  C  76   0.09742     0.00597    -0.03384     0.04878    -0.08872    -0.00000
 PX  C  76  -0.02940     0.00120     0.01221     0.00859     0.04997     0.00000
 PY  C  76  -0.01880    -0.00301     0.00528    -0.02479    -0.00388    -0.00000
 PZ  C  76  -0.00000    -0.00000     0.00000    -0.00000    -0.00000     0.00000
  
  S  C  77   0.15028     0.01874    -0.04578     0.15123     0.03731     0.00000
 PX  C  77  -0.00446     0.00324     0.00414     0.02150    -0.01859    -0.00000
 PY  C  77   0.04593     0.00745    -0.01293     0.06128    -0.01621    -0.00000
 PZ  C  77   0.00000    -0.00000    -0.00000     0.00000    -0.00000     0.00000
  
  S  C  78   0.15028     0.01874    -0.04578     0.15123    -0.03731    -0.00000
 PX  C  78  -0.00446     0.00324     0.00414     0.02150     0.01859     0.00000
 PY  C  78  -0.04593    -0.00745     0.01293    -0.06128    -0.01621    -0.00000
 PZ  C  78   0.00000    -0.00000    -0.00000     0.00000    -0.00000     0.00000
  
  S  H  79   0.03045     0.00249    -0.01014     0.01941     0.02593     0.00000
  
  S  H  80   0.03045     0.00249    -0.01014     0.01941    -0.02593    -0.00000
  
  S  C  81   0.15608     0.03199    -0.03727     0.22740     0.00639    -0.00001
 PX  C  81  -0.00605     0.00524     0.00720     0.02105    -0.00290    -0.00000
 PY  C  81   0.03005     0.00559    -0.00773     0.04178    -0.00403     0.00000
 PZ  C  81   0.00000    -0.00000    -0.00000    -0.00000    -0.00000     0.00000
  
  S  C  82   0.15608     0.03199    -0.03727     0.22740    -0.00639     0.00001
 PX  C  82  -0.00605     0.00524     0.00720     0.02105     0.00290     0.00000
 PY  C  82  -0.03005    -0.00559     0.00773    -0.04178    -0.00403     0.00000
 PZ  C  82  -0.00000    -0.00000     0.00000    -0.00000    -0.00000     0.00000
  
  S  N  83   0.10532     0.02920    -0.01815     0.18374     0.00407    -0.00002
 PX  N  83  -0.00826     0.00032     0.00399    -0.00721    -0.00155    -0.00001
 PY  N  83   0.04343     0.01200    -0.00757     0.07668     0.00039    -0.00000
 PZ  N  83   0.00000    -0.00000     0.00000     0.00000    -0.00000     0.00000
  
  S  N  84   0.10532     0.02920    -0.01815     0.18374    -0.00407     0.00002
 PX  N  84  -0.00826     0.00032     0.00399    -0.00721     0.00155     0.00001
 PY  N  84  -0.04343    -0.01200     0.00757    -0.07668     0.00039    -0.00000
 PZ  N  84  -0.00000    -0.00000     0.00000    -0.00000    -0.00000     0.00000
  
  S  C  85   0.09003     0.03606    -0.00384     0.16999     0.00092    -0.00005
 PX  C  85  -0.02942    -0.00202     0.01172    -0.04833    -0.00061    -0.00003
 PY  C  85   0.01210     0.00526    -0.00006     0.02278    -0.00059     0.00003
 PZ  C  85  -0.00000    -0.00000     0.00000    -0.00000    -0.00000     0.00000
  
  S  C  86   0.09003     0.03606    -0.00384     0.16999    -0.00092     0.00005
 PX  C  86  -0.02942    -0.00202     0.01172    -0.04833     0.00061     0.00003
 PY  C  86  -0.01210    -0.00526     0.00006    -0.02278    -0.00059     0.00003
 PZ  C  86  -0.00000     0.00000     0.00000     0.00000    -0.00000     0.00000
  
  S  C  87   0.04061     0.03296     0.01632     0.08446     0.00034    -0.00034
 PX  C  87  -0.00625     0.00676     0.01037    -0.00979    -0.00022    -0.00022
 PY  C  87   0.01356     0.01102     0.00546     0.02844    -0.00001     0.00001
 PZ  C  87  -0.00000     0.00000     0.00000     0.00000    -0.00000    -0.00000
  
  S  C  88   0.04061     0.03296     0.01632     0.08446    -0.00034     0.00034
 PX  C  88  -0.00625     0.00676     0.01037    -0.00979     0.00022     0.00022
 PY  C  88  -0.01356    -0.01102    -0.00546    -0.02844    -0.00001     0.00001
 PZ  C  88  -0.00000     0.00000     0.00000     0.00000    -0.00000     0.00000
  
  S  H  89   0.01288     0.01044     0.00517     0.02661     0.00019    -0.00019
  
  S  H  90   0.01288     0.01044     0.00517     0.02661    -0.00019     0.00019
  
  S  C  91   0.05125     0.07778     0.06013     0.11072     0.00005    -0.00092
 PX  C  91   0.00665     0.02645     0.02574     0.01395    -0.00003    -0.00060
 PY  C  91   0.00733     0.01038     0.00779     0.01562    -0.00003     0.00059
 PZ  C  91  -0.00000     0.00000     0.00000    -0.00000    -0.00000    -0.00000
  
  S  C  92   0.05125     0.07778     0.06013     0.11072    -0.00005     0.00092
 PX  C  92   0.00665     0.02645     0.02574     0.01395     0.00003     0.00060
 PY  C  92  -0.00733    -0.01038    -0.00779    -0.01562    -0.00003     0.00059
 PZ  C  92  -0.00000     0.00000     0.00000     0.00000    -0.00000    -0.00000
  
  S  N  93   0.04672     0.09197     0.07797     0.09729     0.00002    -0.00406
 PX  N  93   0.00114     0.00710     0.00729    -0.00097    -0.00001    -0.00155
 PY  N  93   0.01919     0.03799     0.03226     0.04042     0.00000    -0.00040
 PZ  N  93  -0.00000    -0.00000    -0.00000    -0.00000     0.00000     0.00000
  
  S  N  94   0.04672     0.09197     0.07797     0.09729    -0.00002     0.00406
 PX  N  94   0.00114     0.00710     0.00729    -0.00097     0.00001     0.00155
 PY  N  94  -0.01919    -0.03799    -0.03226    -0.04042     0.00000    -0.00040
 PZ  N  94  -0.00000     0.00000     0.00000     0.00000    -0.00000     0.00000
  
  S  C  95   0.05866     0.13456     0.11920     0.10095     0.00001    -0.00637
 PX  C  95  -0.00368     0.00389     0.00632    -0.02269    -0.00000    -0.00288
 PY  C  95   0.01073     0.02581     0.02313     0.01723    -0.00000     0.00401
 PZ  C  95   0.00000     0.00000     0.00000     0.00000    -0.00000     0.00000
  
  S  C  96   0.05866     0.13456     0.11920     0.10095    -0.00001     0.00637
 PX  C  96  -0.00368     0.00389     0.00632    -0.02269     0.00000     0.00288
 PY  C  96  -0.01073    -0.02581    -0.02313    -0.01723    -0.00000     0.00401
 PZ  C  96   0.00000     0.00000    -0.00000     0.00000    -0.00000     0.00000
  
  S  H  97   0.00827     0.02497     0.02358     0.00195     0.00000    -0.02580
  
  S  H  98   0.00827     0.02497     0.02358     0.00195    -0.00000     0.02580
  
  S  C  99   0.04588     0.12628     0.11687     0.04429     0.00000    -0.03718
 PX  C  99  -0.00179     0.00236     0.00367    -0.01657    -0.00000    -0.01853
 PY  C  99   0.01531     0.03936     0.03584     0.02261    -0.00000     0.01614
 PZ  C  99   0.00000    -0.00000    -0.00000     0.00000    -0.00000    -0.00000
  
  S  C 100   0.04588     0.12628     0.11687     0.04429    -0.00000     0.03718
 PX  C 100  -0.00179     0.00236     0.00367    -0.01657     0.00000     0.01853
 PY  C 100  -0.01531    -0.03936    -0.03584    -0.02261    -0.00000     0.01614
 PZ  C 100   0.00000     0.00000    -0.00000    -0.00000     0.00000    -0.00000
  
  S  C 101   0.02483     0.07911     0.07547    -0.00261     0.00001    -0.08810
 PX  C 101   0.00512     0.02259     0.02269    -0.01558     0.00000    -0.04962
 PY  C 101   0.00626     0.01613     0.01469     0.00921     0.00000     0.00375
 PZ  C 101   0.00000    -0.00000    -0.00000    -0.00000    -0.00000     0.00000
  
  S  C 102   0.02483     0.07911     0.07547    -0.00261    -0.00001     0.08810
 PX  C 102   0.00512     0.02259     0.02269    -0.01558    -0.00000     0.04962
 PY  C 102  -0.00626    -0.01613    -0.01469    -0.00921     0.00000     0.00375
 PZ  C 102  -0.00000     0.00000     0.00000    -0.00000    -0.00000    -0.00000
  
  S  N 103   0.05022     0.14332     0.13366     0.03984    -0.00000     0.00000
 PX  N 103  -0.01813    -0.04729    -0.04320    -0.02531     0.00000    -0.00000
 PY  N 103  -0.00000    -0.00000    -0.00000     0.00000    -0.00000     0.03031
 PZ  N 103   0.00000     0.00000     0.00000     0.00000     0.00000    -0.00000
  
  S  H 104   0.00655     0.02445     0.02399    -0.00981     0.00000    -0.04601
  
  S  H 105   0.00655     0.02445     0.02399    -0.00981    -0.00000     0.04601
  
  S  C 106   0.04343     0.15943     0.15593    -0.05739     0.00002    -0.27476
 PX  C 106   0.01695     0.06595     0.06510    -0.03221     0.00001    -0.12923
 PY  C 106   0.00374     0.01184     0.01127     0.00016     0.00000    -0.00619
 PZ  C 106  -0.00000    -0.00000    -0.00000     0.00000    -0.00000     0.00000
  
  S  C 107   0.04343     0.15943     0.15593    -0.05739    -0.00002     0.27476
 PX  C 107   0.01695     0.06595     0.06510    -0.03221    -0.00001     0.12923
 PY  C 107  -0.00374    -0.01184    -0.01127    -0.00016     0.00000    -0.00619
 PZ  C 107  -0.00000    -0.00000     0.00000     0.00000    -0.00000    -0.00000
  
  S  C 108   0.02970     0.11169     0.10966    -0.04634     0.00001    -0.20987
 PX  C 108   0.00825     0.03162     0.03114    -0.01447     0.00000    -0.06141
 PY  C 108   0.01490     0.05589     0.05485    -0.02283     0.00001    -0.10282
 PZ  C 108  -0.00000     0.00000    -0.00000    -0.00000     0.00000    -0.00000
  
  S  C 109   0.02970     0.11169     0.10966    -0.04634    -0.00001     0.20987
 PX  C 109   0.00825     0.03162     0.03114    -0.01447    -0.00000     0.06141
 PY  C 109  -0.01490    -0.05589    -0.05485     0.02283     0.00001    -0.10282
 PZ  C 109  -0.00000     0.00000    -0.00000     0.00000    -0.00000     0.00000
  
  S  N 110   0.05873     0.21931     0.21508    -0.08747     0.00002    -0.37509
 PX  N 110  -0.00070    -0.00103    -0.00076    -0.00339    -0.00000    -0.00040
 PY  N 110  -0.01432    -0.05467    -0.05381     0.02450    -0.00001     0.11435
 PZ  N 110   0.00000    -0.00000     0.00000     0.00000     0.00000    -0.00000
  
  S  N 111   0.05873     0.21931     0.21508    -0.08747    -0.00002     0.37509
 PX  N 111  -0.00070    -0.00103    -0.00076    -0.00339     0.00000     0.00040
 PY  N 111   0.01432     0.05467     0.05381    -0.02450    -0.00001     0.11435
 PZ  N 111   0.00000     0.00000     0.00000     0.00000    -0.00000    -0.00000
  
  S  H 112   0.02224     0.08161     0.07982    -0.02941     0.00001    -0.11142
  
  S  H 113   0.02224     0.08161     0.07982    -0.02941    -0.00001     0.11142
  
  S  C 114   0.02932     0.11108     0.10920    -0.04800     0.00001    -0.21013
 PX  C 114  -0.00856    -0.03227    -0.03170     0.01350    -0.00000     0.06172
 PY  C 114   0.01466     0.05547     0.05451    -0.02375     0.00001    -0.10278
 PZ  C 114   0.00000    -0.00000     0.00000    -0.00000     0.00000    -0.00000
  
  S  C 115   0.02932     0.11108     0.10920    -0.04800    -0.00001     0.21013
 PX  C 115  -0.00856    -0.03227    -0.03170     0.01350     0.00000    -0.06172
 PY  C 115  -0.01466    -0.05547    -0.05451     0.02375     0.00001    -0.10278
 PZ  C 115  -0.00000     0.00000    -0.00000     0.00000     0.00000     0.00000
  
  S  C 116   0.04091     0.15487     0.15222    -0.06689     0.00002    -0.27417
 PX  C 116  -0.01803    -0.06769    -0.06643     0.02762    -0.00001     0.12853
 PY  C 116   0.00272     0.01011     0.00991    -0.00410     0.00000    -0.00616
 PZ  C 116  -0.00000     0.00000    -0.00000     0.00000     0.00000     0.00000
  
  S  C 117   0.04091     0.15487     0.15222    -0.06689    -0.00002     0.27417
 PX  C 117  -0.01803    -0.06769    -0.06643     0.02762     0.00001    -0.12853
 PY  C 117  -0.00272    -0.01011    -0.00991     0.00410     0.00000    -0.00616
 PZ  C 117  -0.00000     0.00000    -0.00000     0.00000    -0.00000     0.00000
  
  S  H 118   0.00633     0.02407     0.02368    -0.01061     0.00000    -0.04603
  
  S  H 119   0.00633     0.02407     0.02368    -0.01061    -0.00000     0.04603
  
  S  N 120   0.02596     0.10116     0.09990    -0.05270     0.00000     0.00000
 PX  N 120   0.00701     0.02812     0.02790    -0.01689     0.00000     0.00000
 PY  N 120  -0.00000    -0.00000    -0.00000     0.00000    -0.00000     0.03127
 PZ  N 120  -0.00000    -0.00000     0.00000     0.00000    -0.00000     0.00000
  
  S  C 121   0.01708     0.06558     0.06461    -0.03103     0.00000    -0.08886
 PX  C 121  -0.00704    -0.02652    -0.02604     0.01107    -0.00000     0.05050
 PY  C 121   0.00228     0.00902     0.00893    -0.00516    -0.00000     0.00435
 PZ  C 121   0.00000    -0.00000     0.00000     0.00000     0.00000    -0.00000
  
  S  C 122   0.01708     0.06558     0.06461    -0.03103    -0.00000     0.08886
 PX  C 122  -0.00704    -0.02652    -0.02604     0.01107     0.00000    -0.05050
 PY  C 122  -0.00228    -0.00902    -0.00893     0.00516    -0.00000     0.00435
 PZ  C 122  -0.00000    -0.00000    -0.00000     0.00000    -0.00000     0.00000
  
  S  C 123   0.02114     0.08268     0.08169    -0.04384     0.00000    -0.03646
 PX  C 123  -0.00326    -0.01222    -0.01199     0.00491    -0.00000     0.01881
 PY  C 123   0.00581     0.02316     0.02296    -0.01366    -0.00000     0.01639
 PZ  C 123  -0.00000     0.00000     0.00000    -0.00000    -0.00000     0.00000
  
  S  C 124   0.02114     0.08268     0.08169    -0.04384    -0.00000     0.03646
 PX  C 124  -0.00326    -0.01222    -0.01199     0.00491     0.00000    -0.01881
 PY  C 124  -0.00581    -0.02316    -0.02296     0.01366    -0.00000     0.01639
 PZ  C 124  -0.00000    -0.00000    -0.00000    -0.00000    -0.00000     0.00000
  
  S  H 125   0.00490     0.01890     0.01864    -0.00916     0.00000    -0.02614
  
  S  H 126   0.00490     0.01890     0.01864    -0.00916    -0.00000     0.02614
  
  S  C 127   0.01253     0.04959     0.04909    -0.02801     0.00000    -0.00519
 PX  C 127  -0.00626    -0.02471    -0.02445     0.01373    -0.00000     0.00331
 PY  C 127   0.00334     0.01327     0.01315    -0.00766    -0.00000     0.00333
 PZ  C 127   0.00000    -0.00000     0.00000     0.00000    -0.00000     0.00000
  
  S  C 128   0.01253     0.04959     0.04909    -0.02801    -0.00000     0.00519
 PX  C 128  -0.00626    -0.02471    -0.02445     0.01373     0.00000    -0.00331
 PY  C 128  -0.00334    -0.01327    -0.01315     0.00766    -0.00000     0.00333
 PZ  C 128  -0.00000    -0.00000     0.00000     0.00000    -0.00000     0.00000
  
  S  H 129   0.00282     0.01115     0.01104    -0.00633     0.00000    -0.00243
  
  S  H 130   0.00282     0.01115     0.01104    -0.00633    -0.00000     0.00243




    ROOT NO.    7           8           9          10          11          12

           -48.17405   -48.07322   -47.82480   -47.60933   -46.39078   -46.38978
  
  
  S  H   1  -0.00243    -0.00930    -0.00959     0.00653     0.04880     0.04872
  
  S  H   2   0.00243    -0.00930    -0.00959     0.00653     0.04880     0.04872
  
  S  C   3  -0.00519    -0.04112    -0.04232     0.02880     0.21506     0.21469
 PX  C   3  -0.00331    -0.02001    -0.02044     0.01382     0.09930     0.09912
 PY  C   3   0.00333    -0.01135    -0.01181     0.00811     0.06450     0.06439
 PZ  C   3  -0.00000    -0.00000    -0.00000     0.00000     0.00000     0.00000
  
  S  C   4   0.00519    -0.04112    -0.04232     0.02880     0.21506     0.21469
 PX  C   4   0.00331    -0.02001    -0.02044     0.01382     0.09930     0.09912
 PY  C   4   0.00333     0.01135     0.01181    -0.00811    -0.06450    -0.06439
 PZ  C   4  -0.00000     0.00000     0.00000    -0.00000    -0.00000    -0.00000
  
  S  H   5  -0.02614    -0.01249    -0.01174     0.00730     0.02095     0.02089
  
  S  H   6   0.02614    -0.01249    -0.01174     0.00730     0.02095     0.02089
  
  S  C   7  -0.03646    -0.06264    -0.06258     0.04148     0.26218     0.26169
 PX  C   7  -0.01881    -0.00605    -0.00496     0.00263    -0.01035    -0.01036
 PY  C   7   0.01639    -0.02043    -0.02148     0.01490     0.12584     0.12564
 PZ  C   7   0.00000    -0.00000    -0.00000     0.00000     0.00000     0.00000
  
  S  C   8   0.03646    -0.06264    -0.06258     0.04148     0.26218     0.26169
 PX  C   8   0.01881    -0.00605    -0.00496     0.00263    -0.01035    -0.01036
 PY  C   8   0.01639     0.02043     0.02148    -0.01490    -0.12584    -0.12564
 PZ  C   8   0.00000     0.00000    -0.00000    -0.00000    -0.00000    -0.00000
  
  S  C   9  -0.08886    -0.04187    -0.03891     0.02396     0.06410     0.06389
 PX  C   9  -0.05050    -0.01390    -0.01167     0.00637    -0.02103    -0.02105
 PY  C   9   0.00435    -0.00767    -0.00804     0.00558     0.05032     0.05025
 PZ  C   9  -0.00000     0.00000    -0.00000     0.00000     0.00000     0.00000
  
  S  C  10   0.08886    -0.04187    -0.03891     0.02396     0.06410     0.06389
 PX  C  10   0.05050    -0.01390    -0.01167     0.00637    -0.02103    -0.02105
 PY  C  10   0.00435     0.00767     0.00804    -0.00558    -0.05032    -0.05025
 PZ  C  10  -0.00000     0.00000     0.00000    -0.00000    -0.00000    -0.00000
  
  S  N  11   0.00000    -0.07483    -0.07430     0.04901     0.30728     0.30671
 PX  N  11  -0.00000     0.02531     0.02657    -0.01835    -0.14387    -0.14363
 PY  N  11   0.03127    -0.00000    -0.00000     0.00000    -0.00000    -0.00000
 PZ  N  11   0.00000    -0.00000    -0.00000     0.00000     0.00000     0.00000
  
  S  H  12  -0.04603    -0.01370    -0.01195     0.00682    -0.01188    -0.01192
  
  S  H  13   0.04603    -0.01370    -0.01195     0.00682    -0.01188    -0.01192
  
  S  C  14  -0.27417    -0.08580    -0.07445     0.04242    -0.04263    -0.04286
 PX  C  14  -0.12853    -0.03432    -0.02847     0.01536    -0.05003    -0.05007
 PY  C  14  -0.00616    -0.00525    -0.00468     0.00283     0.01787     0.01785
 PZ  C  14   0.00000     0.00000     0.00000    -0.00000    -0.00000    -0.00000
  
  S  C  15   0.27417    -0.08580    -0.07445     0.04242    -0.04263    -0.04286
 PX  C  15   0.12853    -0.03432    -0.02847     0.01536    -0.05003    -0.05007
 PY  C  15  -0.00616     0.00525     0.00468    -0.00283    -0.01787    -0.01785
 PZ  C  15   0.00000    -0.00000    -0.00000     0.00000     0.00000     0.00000
  
  S  C  16  -0.21013    -0.06142    -0.05298     0.02989    -0.05752    -0.05767
 PX  C  16  -0.06172    -0.01699    -0.01434     0.00789    -0.02137    -0.02140
 PY  C  16  -0.10278    -0.03027    -0.02600     0.01462    -0.02609    -0.02616
 PZ  C  16   0.00000     0.00000    -0.00000     0.00000     0.00000     0.00000
  
  S  C  17   0.21013    -0.06142    -0.05298     0.02989    -0.05752    -0.05767
 PX  C  17   0.06172    -0.01699    -0.01434     0.00789    -0.02137    -0.02140
 PY  C  17  -0.10278     0.03027     0.02600    -0.01462     0.02609     0.02616
 PZ  C  17  -0.00000     0.00000     0.00000    -0.00000     0.00000     0.00000
  
  S  H  18  -0.11142    -0.03465    -0.02714     0.01398    -0.01400    -0.01402
  
  S  H  19   0.11142    -0.03465    -0.02714     0.01398    -0.01400    -0.01402
  
  S  N  20  -0.37509    -0.10804    -0.08949     0.04862    -0.08514    -0.08531
 PX  N  20   0.00040     0.00653     0.00790    -0.00575    -0.01404    -0.01396
 PY  N  20   0.11435     0.03176     0.02772    -0.01577     0.03714     0.03722
 PZ  N  20  -0.00000     0.00000     0.00000    -0.00000    -0.00000    -0.00000
  
  S  N  21   0.37509    -0.10804    -0.08949     0.04862    -0.08514    -0.08531
 PX  N  21  -0.00040     0.00653     0.00790    -0.00575    -0.01404    -0.01396
 PY  N  21   0.11435    -0.03176    -0.02772     0.01577    -0.03714    -0.03722
 PZ  N  21   0.00000    -0.00000    -0.00000     0.00000    -0.00000    -0.00000
  
  S  C  22  -0.20987    -0.05823    -0.04916     0.02713    -0.06369    -0.06380
 PX  C  22   0.06141     0.01893     0.01671    -0.00962     0.01724     0.01729
 PY  C  22  -0.10282    -0.02847    -0.02381     0.01302    -0.02996    -0.03001
 PZ  C  22   0.00000     0.00000    -0.00000    -0.00000     0.00000     0.00000
  
  S  C  23   0.20987    -0.05823    -0.04916     0.02713    -0.06369    -0.06380
 PX  C  23  -0.06141     0.01893     0.01671    -0.00962     0.01724     0.01729
 PY  C  23  -0.10282     0.02847     0.02381    -0.01302     0.02996     0.03001
 PZ  C  23  -0.00000     0.00000     0.00000    -0.00000    -0.00000    -0.00000
  
  S  C  24  -0.27476    -0.06729    -0.05206     0.02619    -0.08055    -0.08056
 PX  C  24   0.12923     0.04306     0.03888    -0.02282     0.03413     0.03428
 PY  C  24  -0.00619     0.00303     0.00534    -0.00444     0.00043     0.00051
 PZ  C  24   0.00000     0.00000     0.00000    -0.00000     0.00000     0.00000
  
  S  C  25   0.27476    -0.06729    -0.05206     0.02619    -0.08055    -0.08056
 PX  C  25  -0.12923     0.04306     0.03888    -0.02282     0.03413     0.03428
 PY  C  25  -0.00619    -0.00303    -0.00534     0.00444    -0.00043    -0.00051
 PZ  C  25   0.00000    -0.00000    -0.00000    -0.00000    -0.00000    -0.00000
  
  S  H  26  -0.04601    -0.01216    -0.01010     0.00549    -0.01477    -0.01479
  
  S  H  27   0.04601    -0.01216    -0.01010     0.00549    -0.01477    -0.01479
  
  S  N  28   0.00000     0.10287     0.13778    -0.10302    -0.02136    -0.01998
 PX  N  28   0.00000     0.05528     0.06908    -0.04989    -0.00271    -0.00210
 PY  N  28   0.03031    -0.00000    -0.00000     0.00000    -0.00000    -0.00000
 PZ  N  28  -0.00000     0.00000    -0.00000     0.00000    -0.00000    -0.00000
  
  S  C  29  -0.08810     0.01223     0.02499    -0.02142    -0.02754    -0.02719
 PX  C  29   0.04962     0.02222     0.02094    -0.01254     0.01600     0.01607
 PY  C  29   0.00375     0.01986     0.02465    -0.01774     0.00118     0.00140
 PZ  C  29  -0.00000     0.00000     0.00000     0.00000    -0.00000    -0.00000
  
  S  C  30   0.08810     0.01223     0.02499    -0.02142    -0.02754    -0.02719
 PX  C  30  -0.04962     0.02222     0.02094    -0.01254     0.01600     0.01607
 PY  C  30   0.00375    -0.01986    -0.02465     0.01774    -0.00118    -0.00140
 PZ  C  30   0.00000    -0.00000    -0.00000    -0.00000    -0.00000    -0.00000
  
  S  C  31  -0.03718     0.10447     0.13386    -0.09741    -0.01395    -0.01278
 PX  C  31   0.01853     0.02651     0.02644    -0.01609     0.01094     0.01099
 PY  C  31   0.01614     0.04863     0.06030    -0.04335     0.00065     0.00117
 PZ  C  31  -0.00000     0.00000    -0.00000     0.00000    -0.00000    -0.00000
  
  S  C  32   0.03718     0.10447     0.13386    -0.09741    -0.01395    -0.01278
 PX  C  32  -0.01853     0.02651     0.02644    -0.01609     0.01094     0.01099
 PY  C  32   0.01614    -0.04863    -0.06030     0.04335    -0.00065    -0.00117
 PZ  C  32  -0.00000     0.00000     0.00000    -0.00000     0.00000     0.00000
  
  S  H  33  -0.02580     0.00834     0.01237    -0.00949    -0.00752    -0.00741
  
  S  H  34   0.02580     0.00834     0.01237    -0.00949    -0.00752    -0.00741
  
  S  C  35  -0.00637     0.19186     0.21496    -0.14235     0.02323     0.02425
 PX  C  35   0.00288     0.02942     0.02037    -0.00652     0.01921     0.01886
 PY  C  35   0.00401     0.03425     0.03990    -0.02731     0.00256     0.00281
 PZ  C  35  -0.00000     0.00000     0.00000    -0.00000    -0.00000    -0.00000
  
  S  C  36   0.00637     0.19186     0.21496    -0.14235     0.02323     0.02425
 PX  C  36  -0.00288     0.02942     0.02037    -0.00652     0.01921     0.01886
 PY  C  36   0.00401    -0.03425    -0.03990     0.02731    -0.00256    -0.00281
 PZ  C  36   0.00000     0.00000     0.00000    -0.00000    -0.00000    -0.00000
  
  S  N  37  -0.00406     0.16717     0.17064    -0.10383     0.03636     0.03660
 PX  N  37   0.00155    -0.00397    -0.01008     0.00974     0.00209     0.00188
 PY  N  37  -0.00040     0.06996     0.07203    -0.04419     0.01553     0.01565
 PZ  N  37  -0.00000    -0.00000    -0.00000     0.00000    -0.00000    -0.00000
  
  S  N  38   0.00406     0.16717     0.17064    -0.10383     0.03636     0.03660
 PX  N  38  -0.00155    -0.00397    -0.01008     0.00974     0.00209     0.00188
 PY  N  38  -0.00040    -0.06996    -0.07203     0.04419    -0.01553    -0.01565
 PZ  N  38   0.00000    -0.00000    -0.00000     0.00000    -0.00000    -0.00000
  
  S  C  39  -0.00092     0.16001     0.13148    -0.06175     0.03691     0.03627
 PX  C  39   0.00060    -0.04224    -0.06238     0.04888    -0.01026    -0.01082
 PY  C  39   0.00059     0.02144     0.01623    -0.00666     0.00462     0.00451
 PZ  C  39  -0.00000     0.00000    -0.00000     0.00000     0.00000     0.00000
  
  S  C  40   0.00092     0.16001     0.13148    -0.06175     0.03691     0.03627
 PX  C  40  -0.00060    -0.04224    -0.06238     0.04888    -0.01026    -0.01082
 PY  C  40   0.00059    -0.02144    -0.01623     0.00666    -0.00462    -0.00451
 PZ  C  40  -0.00000     0.00000    -0.00000     0.00000    -0.00000    -0.00000
  
  S  H  41  -0.00019     0.02620     0.00677     0.00692     0.00486     0.00443
  
  S  H  42   0.00019     0.02620     0.00677     0.00692     0.00486     0.00443
  
  S  C  43  -0.00034     0.08335     0.02156     0.02213     0.01571     0.01431
 PX  C  43   0.00022    -0.00794    -0.03265     0.03287    -0.00514    -0.00563
 PY  C  43   0.00001     0.02815     0.00731     0.00752     0.00543     0.00494
 PZ  C  43  -0.00000    -0.00000    -0.00000     0.00000     0.00000     0.00000
  
  S  C  44   0.00034     0.08335     0.02156     0.02213     0.01571     0.01431
 PX  C  44  -0.00022    -0.00794    -0.03265     0.03287    -0.00514    -0.00563
 PY  C  44   0.00001    -0.02815    -0.00731    -0.00752    -0.00543    -0.00494
 PZ  C  44  -0.00000     0.00000    -0.00000     0.00000    -0.00000    -0.00000
  
  S  C  45  -0.00005     0.11247    -0.06234     0.13176     0.00810     0.00472
 PX  C  45   0.00003     0.01483    -0.04889     0.06171    -0.00572    -0.00668
 PY  C  45   0.00003     0.01574    -0.00682     0.01617     0.00140     0.00098
 PZ  C  45  -0.00000    -0.00000    -0.00000     0.00000     0.00000     0.00000
  
  S  C  46   0.00005     0.11247    -0.06234     0.13176     0.00810     0.00472
 PX  C  46  -0.00003     0.01483    -0.04889     0.06171    -0.00572    -0.00668
 PY  C  46   0.00003    -0.01574     0.00682    -0.01617    -0.00140    -0.00098
 PZ  C  46   0.00000     0.00000    -0.00000     0.00000     0.00000     0.00000
  
  S  N  47  -0.00002     0.09856    -0.10512     0.16827    -0.00151    -0.00487
 PX  N  47   0.00001    -0.00197    -0.01063     0.00808    -0.00239    -0.00221
 PY  N  47  -0.00000     0.04111    -0.04458     0.07132    -0.00082    -0.00225
 PZ  N  47  -0.00000    -0.00000     0.00000    -0.00000    -0.00000     0.00000
  
  S  N  48   0.00002     0.09856    -0.10512     0.16827    -0.00151    -0.00487
 PX  N  48  -0.00001    -0.00197    -0.01063     0.00808    -0.00239    -0.00221
 PY  N  48  -0.00000    -0.04111     0.04458    -0.07132     0.00082     0.00225
 PZ  N  48   0.00000    -0.00000     0.00000    -0.00000     0.00000     0.00000
  
  S  C  49  -0.00001     0.09577    -0.15008     0.20022    -0.01042    -0.01259
 PX  C  49   0.00000    -0.02762     0.00222    -0.02842    -0.00454    -0.00277
 PY  C  49   0.00000     0.01588    -0.02913     0.03655    -0.00270    -0.00294
 PZ  C  49  -0.00000    -0.00000    -0.00000     0.00000    -0.00000    -0.00000
  
  S  C  50   0.00001     0.09577    -0.15008     0.20022    -0.01042    -0.01259
 PX  C  50  -0.00000    -0.02762     0.00222    -0.02842    -0.00454    -0.00277
 PY  C  50   0.00000    -0.01588     0.02913    -0.03655     0.00270     0.00294
 PZ  C  50   0.00000     0.00000     0.00000    -0.00000     0.00000     0.00000
  
  S  H  51   0.00000    -0.00252    -0.01405     0.00375    -0.00148    -0.00079
  
  S  H  52  -0.00000    -0.00252    -0.01405     0.00375    -0.00148    -0.00079
  
  S  C  53   0.00000     0.02981    -0.11297     0.10459    -0.01329    -0.01203
 PX  C  53   0.00000    -0.02014     0.01292    -0.03222     0.00026     0.00127
 PY  C  53  -0.00000     0.01997    -0.04657     0.05440    -0.00579    -0.00587
 PZ  C  53  -0.00000     0.00000    -0.00000     0.00000     0.00000     0.00000
  
  S  C  54  -0.00000     0.02981    -0.11297     0.10459    -0.01329    -0.01203
 PX  C  54  -0.00000    -0.02014     0.01292    -0.03222     0.00026     0.00127
 PY  C  54  -0.00000    -0.01997     0.04657    -0.05440     0.00579     0.00587
 PZ  C  54  -0.00000     0.00000     0.00000    -0.00000     0.00000     0.00000
  
  S  C  55   0.00000    -0.01821    -0.03685    -0.00432    -0.00450    -0.00197
 PX  C  55   0.00000    -0.02295     0.00568    -0.03402     0.00035     0.00183
 PY  C  55  -0.00000     0.00838    -0.01887     0.02278    -0.00235    -0.00247
 PZ  C  55  -0.00000    -0.00000     0.00000     0.00000    -0.00000    -0.00000
  
  S  C  56  -0.00000    -0.01821    -0.03685    -0.00432    -0.00450    -0.00197
 PX  C  56  -0.00000    -0.02295     0.00568    -0.03402     0.00035     0.00183
 PY  C  56  -0.00000    -0.00838     0.01887    -0.02278     0.00235     0.00247
 PZ  C  56  -0.00000    -0.00000     0.00000    -0.00000     0.00000     0.00000
  
  S  N  57  -0.00000     0.02188    -0.12223     0.10268    -0.01591    -0.01397
 PX  N  57   0.00000    -0.02126     0.05471    -0.06020     0.00685     0.00662
 PY  N  57  -0.00000    -0.00000     0.00000    -0.00000     0.00000     0.00000
 PZ  N  57   0.00000     0.00000    -0.00000     0.00000     0.00000     0.00000
  
  S  H  58   0.00000    -0.01663    -0.00107    -0.02270    -0.00014     0.00121
  
  S  H  59  -0.00000    -0.01663    -0.00107    -0.02270    -0.00014     0.00121
  
  S  C  60   0.00002    -0.09789    -0.01296    -0.12576    -0.00181     0.00555
 PX  C  60   0.00001    -0.04975     0.00591    -0.07015     0.00079     0.00389
 PY  C  60   0.00000    -0.00104    -0.00572     0.00350    -0.00081    -0.00085
 PZ  C  60  -0.00000    -0.00000    -0.00000    -0.00000    -0.00000    -0.00000
  
  S  C  61  -0.00002    -0.09789    -0.01296    -0.12576    -0.00181     0.00555
 PX  C  61  -0.00001    -0.04975     0.00591    -0.07015     0.00079     0.00389
 PY  C  61   0.00000     0.00104     0.00572    -0.00350     0.00081     0.00085
 PZ  C  61  -0.00000    -0.00000     0.00000     0.00000    -0.00000     0.00000
  
  S  C  62   0.00001    -0.07690    -0.00218    -0.10498    -0.00030     0.00552
 PX  C  62   0.00000    -0.02308     0.00142    -0.03221     0.00020     0.00177
 PY  C  62   0.00001    -0.03770    -0.00127    -0.05079    -0.00018     0.00255
 PZ  C  62   0.00000    -0.00000     0.00000    -0.00000     0.00000     0.00000
  
  S  C  63  -0.00001    -0.07690    -0.00218    -0.10498    -0.00030     0.00552
 PX  C  63  -0.00000    -0.02308     0.00142    -0.03221     0.00020     0.00177
 PY  C  63   0.00001     0.03770     0.00127     0.05079     0.00018    -0.00255
 PZ  C  63  -0.00000    -0.00000    -0.00000     0.00000    -0.00000    -0.00000
  
  S  N  64   0.00002    -0.13802    -0.00000    -0.17769     0.00001     0.00776
 PX  N  64   0.00000    -0.00000     0.00891    -0.00000     0.00132    -0.00000
 PY  N  64  -0.00001     0.04111     0.00000     0.05852    -0.00000    -0.00338
 PZ  N  64   0.00000    -0.00000    -0.00000     0.00000    -0.00000    -0.00000
  
  S  H  65   0.00001    -0.04354    -0.00000    -0.04980     0.00000     0.00130
  
  S  H  66  -0.00001    -0.04354    -0.00000    -0.04980     0.00000     0.00130
  
  S  N  67  -0.00002    -0.13802    -0.00000    -0.17769     0.00001     0.00776
 PX  N  67  -0.00000    -0.00000     0.00891    -0.00000     0.00132    -0.00000
 PY  N  67  -0.00001    -0.04111    -0.00000    -0.05852     0.00000     0.00338
 PZ  N  67   0.00000    -0.00000     0.00000    -0.00000     0.00000     0.00000
  
  S  C  68   0.00001    -0.07690     0.00218    -0.10498     0.00031     0.00552
 PX  C  68  -0.00000     0.02308     0.00142     0.03221     0.00020    -0.00177
 PY  C  68   0.00001    -0.03770     0.00127    -0.05079     0.00019     0.00255
 PZ  C  68   0.00000    -0.00000     0.00000    -0.00000     0.00000     0.00000
  
  S  C  69  -0.00001    -0.07690     0.00218    -0.10498     0.00031     0.00552
 PX  C  69   0.00000     0.02308     0.00142     0.03221     0.00020    -0.00177
 PY  C  69   0.00001     0.03770    -0.00127     0.05079    -0.00019    -0.00255
 PZ  C  69  -0.00000    -0.00000    -0.00000    -0.00000    -0.00000    -0.00000
  
  S  C  70   0.00002    -0.09789     0.01296    -0.12576     0.00181     0.00555
 PX  C  70  -0.00001     0.04975     0.00591     0.07015     0.00078    -0.00389
 PY  C  70   0.00000    -0.00104     0.00572     0.00350     0.00081    -0.00085
 PZ  C  70   0.00000    -0.00000     0.00000    -0.00000     0.00000     0.00000
  
  S  C  71  -0.00002    -0.09789     0.01296    -0.12576     0.00181     0.00555
 PX  C  71   0.00001     0.04975     0.00591     0.07015     0.00078    -0.00389
 PY  C  71   0.00000     0.00104    -0.00572    -0.00350    -0.00081     0.00085
 PZ  C  71   0.00000    -0.00000     0.00000    -0.00000     0.00000    -0.00000
  
  S  H  72   0.00000    -0.01663     0.00107    -0.02270     0.00015     0.00121
  
  S  H  73  -0.00000    -0.01663     0.00107    -0.02270     0.00015     0.00121
  
  S  N  74   0.00000     0.02187     0.12223     0.10267     0.01589    -0.01399
 PX  N  74   0.00000     0.02126     0.05471     0.06020     0.00684    -0.00663
 PY  N  74  -0.00000    -0.00000    -0.00000    -0.00000    -0.00000     0.00000
 PZ  N  74  -0.00000    -0.00000     0.00000     0.00000    -0.00000    -0.00000
  
  S  C  75   0.00001    -0.01821     0.03685    -0.00432     0.00450    -0.00198
 PX  C  75  -0.00000     0.02295     0.00568     0.03402     0.00035    -0.00183
 PY  C  75  -0.00000     0.00838     0.01887     0.02278     0.00234    -0.00247
 PZ  C  75  -0.00000     0.00000    -0.00000     0.00000    -0.00000    -0.00000
  
  S  C  76  -0.00001    -0.01821     0.03685    -0.00432     0.00450    -0.00198
 PX  C  76   0.00000     0.02295     0.00568     0.03402     0.00035    -0.00183
 PY  C  76  -0.00000    -0.00838    -0.01887    -0.02278    -0.00234     0.00247
 PZ  C  76   0.00000    -0.00000    -0.00000    -0.00000     0.00000    -0.00000
  
  S  C  77   0.00000     0.02981     0.11297     0.10459     0.01327    -0.01205
 PX  C  77  -0.00000     0.02014     0.01292     0.03222     0.00026    -0.00127
 PY  C  77  -0.00000     0.01997     0.04657     0.05440     0.00579    -0.00587
 PZ  C  77  -0.00000    -0.00000     0.00000     0.00000    -0.00000    -0.00000
  
  S  C  78  -0.00000     0.02981     0.11297     0.10459     0.01327    -0.01205
 PX  C  78   0.00000     0.02014     0.01292     0.03222     0.00026    -0.00127
 PY  C  78  -0.00000    -0.01997    -0.04657    -0.05440    -0.00579     0.00587
 PZ  C  78  -0.00000    -0.00000     0.00000     0.00000    -0.00000     0.00000
  
  S  H  79   0.00000    -0.00252     0.01405     0.00375     0.00148    -0.00079
  
  S  H  80  -0.00000    -0.00252     0.01405     0.00375     0.00148    -0.00079
  
  S  C  81   0.00000     0.09577     0.15008     0.20022     0.01040    -0.01260
 PX  C  81  -0.00000     0.02762     0.00222     0.02842    -0.00453     0.00278
 PY  C  81  -0.00000     0.01588     0.02913     0.03655     0.00270    -0.00295
 PZ  C  81   0.00000    -0.00000    -0.00000    -0.00000    -0.00000    -0.00000
  
  S  C  82  -0.00000     0.09577     0.15008     0.20022     0.01040    -0.01260
 PX  C  82   0.00000     0.02762     0.00222     0.02842    -0.00453     0.00278
 PY  C  82  -0.00000    -0.01588    -0.02913    -0.03655    -0.00270     0.00295
 PZ  C  82   0.00000    -0.00000    -0.00000    -0.00000    -0.00000    -0.00000
  
  S  N  83  -0.00000     0.09856     0.10512     0.16827     0.00150    -0.00487
 PX  N  83  -0.00000     0.00197    -0.01063    -0.00808    -0.00239     0.00221
 PY  N  83  -0.00000     0.04111     0.04458     0.07132     0.00081    -0.00225
 PZ  N  83   0.00000     0.00000     0.00000     0.00000    -0.00000     0.00000
  
  S  N  84   0.00000     0.09856     0.10512     0.16827     0.00150    -0.00487
 PX  N  84   0.00000     0.00197    -0.01063    -0.00808    -0.00239     0.00221
 PY  N  84  -0.00000    -0.04111    -0.04458    -0.07132    -0.00081     0.00225
 PZ  N  84  -0.00000    -0.00000    -0.00000    -0.00000     0.00000    -0.00000
  
  S  C  85  -0.00000     0.11247     0.06234     0.13176    -0.00809     0.00473
 PX  C  85  -0.00000    -0.01483    -0.04889    -0.06171    -0.00571     0.00669
 PY  C  85   0.00000     0.01574     0.00682     0.01617    -0.00140     0.00098
 PZ  C  85  -0.00000    -0.00000    -0.00000     0.00000    -0.00000     0.00000
  
  S  C  86   0.00000     0.11247     0.06234     0.13176    -0.00809     0.00473
 PX  C  86   0.00000    -0.01483    -0.04889    -0.06171    -0.00571     0.00669
 PY  C  86   0.00000    -0.01574    -0.00682    -0.01617     0.00140    -0.00098
 PZ  C  86  -0.00000     0.00000     0.00000     0.00000    -0.00000     0.00000
  
  S  C  87  -0.00002     0.08335    -0.02156     0.02213    -0.01569     0.01433
 PX  C  87  -0.00001     0.00794    -0.03265    -0.03287    -0.00513     0.00564
 PY  C  87   0.00000     0.02815    -0.00731     0.00752    -0.00542     0.00495
 PZ  C  87  -0.00000     0.00000     0.00000     0.00000     0.00000     0.00000
  
  S  C  88   0.00002     0.08335    -0.02156     0.02213    -0.01569     0.01433
 PX  C  88   0.00001     0.00794    -0.03265    -0.03287    -0.00513     0.00564
 PY  C  88   0.00000    -0.02815     0.00731    -0.00752     0.00542    -0.00495
 PZ  C  88   0.00000     0.00000     0.00000     0.00000    -0.00000     0.00000
  
  S  H  89  -0.00001     0.02620    -0.00676     0.00692    -0.00486     0.00444
  
  S  H  90   0.00001     0.02620    -0.00676     0.00692    -0.00486     0.00444
  
  S  C  91  -0.00005     0.16001    -0.13148    -0.06175    -0.03686     0.03632
 PX  C  91  -0.00003     0.04224    -0.06238    -0.04888    -0.01024     0.01083
 PY  C  91   0.00003     0.02144    -0.01623    -0.00666    -0.00462     0.00451
 PZ  C  91  -0.00000    -0.00000     0.00000     0.00000     0.00000    -0.00000
  
  S  C  92   0.00005     0.16001    -0.13148    -0.06175    -0.03686     0.03632
 PX  C  92   0.00003     0.04224    -0.06238    -0.04888    -0.01024     0.01083
 PY  C  92   0.00003    -0.02144     0.01623     0.00666     0.00462    -0.00451
 PZ  C  92  -0.00000     0.00000    -0.00000    -0.00000    -0.00000     0.00000
  
  S  N  93  -0.00023     0.16717    -0.17064    -0.10383    -0.03631     0.03665
 PX  N  93  -0.00009     0.00397    -0.01008    -0.00974     0.00209    -0.00188
 PY  N  93  -0.00002     0.06997    -0.07203    -0.04419    -0.01551     0.01567
 PZ  N  93  -0.00000    -0.00000     0.00000     0.00000     0.00000     0.00000
  
  S  N  94   0.00023     0.16717    -0.17064    -0.10383    -0.03631     0.03665
 PX  N  94   0.00009     0.00397    -0.01008    -0.00974     0.00209    -0.00188
 PY  N  94  -0.00002    -0.06997     0.07203     0.04419     0.01551    -0.01567
 PZ  N  94  -0.00000     0.00000    -0.00000    -0.00000     0.00000     0.00000
  
  S  C  95  -0.00036     0.19186    -0.21496    -0.14235    -0.02320     0.02428
 PX  C  95  -0.00016    -0.02942     0.02037     0.00652     0.01919    -0.01888
 PY  C  95   0.00023     0.03426    -0.03990    -0.02731    -0.00256     0.00282
 PZ  C  95  -0.00000     0.00000    -0.00000    -0.00000    -0.00000     0.00000
  
  S  C  96   0.00036     0.19186    -0.21496    -0.14235    -0.02320     0.02428
 PX  C  96   0.00016    -0.02942     0.02037     0.00652     0.01919    -0.01888
 PY  C  96   0.00023    -0.03426     0.03990     0.02731     0.00256    -0.00282
 PZ  C  96  -0.00000     0.00000    -0.00000    -0.00000     0.00000     0.00000
  
  S  H  97  -0.00147     0.00834    -0.01237    -0.00949     0.00751    -0.00742
  
  S  H  98   0.00147     0.00834    -0.01237    -0.00949     0.00751    -0.00742
  
  S  C  99  -0.00212     0.10447    -0.13386    -0.09741     0.01393    -0.01280
 PX  C  99  -0.00106    -0.02651     0.02644     0.01609     0.01092    -0.01100
 PY  C  99   0.00092     0.04863    -0.06030    -0.04335    -0.00065     0.00118
 PZ  C  99   0.00000     0.00000     0.00000    -0.00000    -0.00000     0.00000
  
  S  C 100   0.00212     0.10447    -0.13386    -0.09741     0.01393    -0.01280
 PX  C 100   0.00106    -0.02651     0.02644     0.01609     0.01092    -0.01100
 PY  C 100   0.00092    -0.04863     0.06030     0.04335     0.00065    -0.00118
 PZ  C 100   0.00000    -0.00000     0.00000     0.00000     0.00000     0.00000
  
  S  C 101  -0.00502     0.01223    -0.02499    -0.02142     0.02750    -0.02723
 PX  C 101  -0.00283    -0.02222     0.02094     0.01254     0.01598    -0.01609
 PY  C 101   0.00021     0.01986    -0.02465    -0.01774    -0.00118     0.00140
 PZ  C 101   0.00000     0.00000    -0.00000    -0.00000    -0.00000     0.00000
  
  S  C 102   0.00502     0.01223    -0.02499    -0.02142     0.02750    -0.02723
 PX  C 102   0.00283    -0.02222     0.02094     0.01254     0.01598    -0.01609
 PY  C 102   0.00021    -0.01986     0.02465     0.01774     0.00118    -0.00140
 PZ  C 102   0.00000    -0.00000    -0.00000    -0.00000     0.00000     0.00000
  
  S  N 103   0.00000     0.10287    -0.13778    -0.10302     0.02134    -0.02001
 PX  N 103  -0.00000    -0.05528     0.06908     0.04989    -0.00271     0.00211
 PY  N 103   0.00173    -0.00000     0.00000     0.00000     0.00000    -0.00000
 PZ  N 103  -0.00000     0.00000    -0.00000     0.00000     0.00000    -0.00000
  
  S  H 104  -0.00262    -0.01216     0.01010     0.00549     0.01475    -0.01481
  
  S  H 105   0.00262    -0.01216     0.01010     0.00549     0.01475    -0.01481
  
  S  C 106  -0.01566    -0.06729     0.05206     0.02619     0.08044    -0.08067
 PX  C 106  -0.00737    -0.04307     0.03888     0.02282     0.03409    -0.03432
 PY  C 106  -0.00035     0.00303    -0.00534    -0.00444    -0.00043     0.00051
 PZ  C 106  -0.00000    -0.00000    -0.00000     0.00000    -0.00000     0.00000
  
  S  C 107   0.01566    -0.06729     0.05206     0.02619     0.08044    -0.08067
 PX  C 107   0.00737    -0.04307     0.03888     0.02282     0.03409    -0.03432
 PY  C 107  -0.00035    -0.00303     0.00534     0.00444     0.00043    -0.00051
 PZ  C 107   0.00000    -0.00000    -0.00000     0.00000     0.00000     0.00000
  
  S  C 108  -0.01196    -0.05823     0.04916     0.02713     0.06360    -0.06389
 PX  C 108  -0.00350    -0.01893     0.01671     0.00962     0.01721    -0.01732
 PY  C 108  -0.00586    -0.02847     0.02381     0.01302     0.02992    -0.03005
[...]
 121    C       17.947468000    -2.423951000     0.000000000
 122    C       17.947468000     2.423951000     0.000000000
 123    C       18.360745000    -1.084768000     0.000000000
 124    C       18.360745000     1.084768000     0.000000000
 125    H       18.728398000    -3.179006000     0.000000000
 126    H       18.728398000     3.179006000     0.000000000
 127    C       19.761905000    -0.678720000     0.000000000
 128    C       19.761905000     0.678720000     0.000000000
 129    H       20.609999000    -1.352470000     0.000000000
 130    H       20.609999000     1.352470000     0.000000000


           Empirical Formula: C72 H38 N20  =   130 atoms



      MOLECULAR POINT GROUP   :   D2h 


                  EIGENVALUES  
 -48.98030 -48.87070 -48.85342 -48.30344 -48.22572 -48.17405 -48.17405 -48.07322
 -47.82480 -47.60933 -46.39078 -46.38978 -44.97678 -44.86943 -44.06957 -43.99822
 -39.37076 -39.28975 -39.23507 -39.23305 -38.95320 -38.81510 -37.36869 -37.31768
 -37.02490 -36.04876 -35.96428 -35.96152 -35.95172 -35.92867 -35.77112 -34.96195
 -34.95616 -34.80035 -33.64823 -33.52087 -33.43963 -33.08013 -32.91545 -32.91285
 -32.07855 -31.85199 -31.84982 -31.61223 -30.77532 -30.54083 -30.29242 -29.84066
 -29.26983 -28.93356 -28.66890 -27.82068 -27.50790 -27.33610 -27.33233 -27.30918
 -26.45634 -26.32707 -25.90420 -25.79507 -25.75549 -25.38951 -25.30410 -25.27350
 -25.08656 -24.87584 -24.75684 -24.71736 -24.49667 -24.43401 -23.90613 -23.89341
 -23.78162 -23.76710 -23.70076 -23.59613 -23.33820 -23.32310 -22.32729 -22.27607
 -21.83876 -21.82430 -21.61134 -21.48141 -21.23905 -21.18077 -21.01835 -20.83083
 -20.58702 -20.54183 -20.42130 -19.93697 -19.20848 -19.12807 -18.93527 -18.74946
 -18.73288 -17.89626 -17.70636 -17.67935 -17.65102 -17.24521 -17.15638 -16.87223
 -16.84363 -16.70349 -16.52206 -16.31804 -16.14911 -16.05945 -16.05655 -16.05127
 -15.85191 -15.75161 -15.70451 -15.67298 -15.64937 -15.61866 -15.46614 -15.37825
 -15.36263 -15.35488 -15.31002 -15.31002 -15.30735 -15.23957 -15.20951 -15.20630
 -15.18927 -15.15739 -14.93685 -14.82141 -14.79633 -14.59881 -14.52552 -14.42584
 -14.41873 -14.34032 -14.18350 -14.12462 -14.04284 -14.03432 -14.01385 -14.01207
 -13.89280 -13.56871 -13.56518 -13.56347 -13.38977 -13.37421 -13.34031 -13.33953
 -13.21993 -13.20479 -12.97968 -12.91083 -12.77074 -12.74338 -12.65192 -12.58502
 -12.45624 -12.28843 -12.17653 -12.13144 -12.05317 -12.03016 -12.02777 -11.96203
 -11.69412 -11.51357 -11.50441 -11.49429 -11.45554 -11.44783 -11.09805 -10.94054
 -10.71687 -10.32748 -10.22818 -10.18567 -10.16695 -10.07350 -10.05300  -9.97325
  -9.97008  -9.81366  -9.79031  -9.75473  -9.75285  -9.73706  -9.73674  -9.61676
  -9.56232  -9.48566  -9.43593  -9.36824  -9.32442  -9.32062  -9.30955  -9.30721
  -9.25728  -8.66072  -8.66064  -7.89203  -7.81485  -7.80793  -7.72306  -6.93789
  -6.83340  -6.83216  -6.35900  -6.29983  -6.16713  -1.89857  -1.67062  -1.62224
  -1.41840  -1.35879  -1.25790  -1.11567  -0.96994  -0.02181   0.07447   0.07730
   0.21057   0.34030   0.96710   1.12539   1.14102   1.22746   1.27135   1.59133
   1.65988   1.80685   1.85736   1.90951   1.93800   1.94696   1.99544   2.10587
   2.29341   2.36284   2.71429   2.72281   2.78161   2.78572   2.83023   2.84619
   2.85679   2.86027   2.86934   2.87151   2.90717   2.90717   2.93420   2.93427
   2.94939   2.95556   2.98782   2.98788   2.99717   2.99718   3.04319   3.04319
   3.06919   3.07288   3.23307   3.23449   3.51701   3.54322   3.57187   3.57606
   3.69115   3.69116   3.69873   3.74281   3.74305   3.77073   3.81561   3.90725
   3.94083   3.94172   4.05334   4.06941   4.23899   4.26592   4.50430   4.56280
   4.56283   4.65816   4.70596   4.70597   4.93620   4.93626   4.96308   4.96620
   5.05815   5.05998   5.33862   5.39488   5.39488   5.48455   5.52778   5.52778
   6.03109   6.03118   6.09653   6.14351   6.14352   6.20984   6.21703   6.21767
   6.31023   6.37092   6.42203   6.56579   6.63620   6.63621   6.82248   6.82430
   6.82430   6.83965   6.87574   6.88388   6.88597   6.92655   6.97901   6.97903
   7.15650   7.16348   7.87940   7.88432   7.93137   7.93273   9.28006   9.29414
   9.30900   9.31100   9.31775   9.31795   9.55269   9.58852   9.69108   9.73318
   9.74754   9.78681   9.78760   9.97495   9.99708  10.00517  10.24009  10.25103
  10.29390  10.38245  10.38333  10.53348  10.78107  10.88278  11.01083  11.02403
  11.04901  11.10503  11.13087  11.16415  11.18681  11.18837  11.22151  11.24659
  11.25452  11.25466  11.25712  11.36611  11.45200  11.45207  11.51026  11.55298
  11.71397  11.85914  11.88379  12.01690  12.02297  12.29552  12.37898  12.40067
  12.61983  12.68047  12.82381  13.02889  13.03027  13.77965  13.86298  14.06026
  14.13419  14.18658  14.24925  14.38349  14.79571  14.94308  14.94689  14.98802
  15.05152  15.34386  15.40354  15.40644  16.09948  16.13250


              NET ATOMIC CHARGES AND DIPOLE CONTRIBUTIONS

  ATOM NO.   TYPE          CHARGE      No. of ELECS.   s-Pop       p-Pop       
    1          H           0.027156        0.9728     0.97284
    2          H           0.027156        0.9728     0.97284
    3          C          -0.042030        4.0420     1.09659     2.94544
    4          C          -0.042030        4.0420     1.09659     2.94544
    5          H           0.021558        0.9784     0.97844
    6          H           0.021558        0.9784     0.97844
    7          C           0.095691        3.9043     1.05252     2.85179
    8          C           0.095691        3.9043     1.05252     2.85179
    9          C          -0.012114        4.0121     1.08057     2.93154
   10          C          -0.012114        4.0121     1.08057     2.93154
   11          N          -0.398407        5.3984     1.62906     3.76934
   12          H           0.036301        0.9637     0.96370
   13          H           0.036301        0.9637     0.96370
   14          C           0.072134        3.9279     1.04119     2.88668
   15          C           0.072134        3.9279     1.04119     2.88668
   16          C          -0.028740        4.0287     1.09235     2.93639
   17          C          -0.028740        4.0287     1.09235     2.93639
   18          H           0.173633        0.8264     0.82637
   19          H           0.173633        0.8264     0.82637
   20          N          -0.111243        5.1112     1.24322     3.86802
   21          N          -0.111243        5.1112     1.24322     3.86802
   22          C          -0.046600        4.0466     1.08899     2.95761
   23          C          -0.046600        4.0466     1.08899     2.95761
   24          C           0.104272        3.8957     1.04708     2.84865
   25          C           0.104272        3.8957     1.04708     2.84865
   26          H           0.036316        0.9637     0.96368
   27          H           0.036316        0.9637     0.96368
   28          N          -0.373089        5.3731     1.61812     3.75497
   29          C          -0.048000        4.0480     1.06945     2.97855
   30          C          -0.048000        4.0480     1.06945     2.97855
   31          C           0.115580        3.8844     1.05694     2.82748
   32          C           0.115580        3.8844     1.05694     2.82748
   33          H           0.025489        0.9745     0.97451
   34          H           0.025489        0.9745     0.97451
   35          C           0.139552        3.8604     1.05643     2.80402
   36          C           0.139552        3.8604     1.05643     2.80402
   37          N          -0.270363        5.2704     1.59152     3.67884
   38          N          -0.270363        5.2704     1.59152     3.67884
   39          C           0.097410        3.9026     1.04961     2.85298
   40          C           0.097410        3.9026     1.04961     2.85298
   41          H           0.030609        0.9694     0.96939
   42          H           0.030609        0.9694     0.96939
   43          C          -0.030507        4.0305     1.08543     2.94508
   44          C          -0.030507        4.0305     1.08543     2.94508
   45          C           0.097702        3.9023     1.04968     2.85262
   46          C           0.097702        3.9023     1.04968     2.85262
   47          N          -0.271739        5.2717     1.59148     3.68026
   48          N          -0.271739        5.2717     1.59148     3.68026
   49          C           0.137669        3.8623     1.05585     2.80648
   50          C           0.137669        3.8623     1.05585     2.80648
   51          H           0.027637        0.9724     0.97236
   52          H           0.027637        0.9724     0.97236
   53          C           0.102617        3.8974     1.05443     2.84295
   54          C           0.102617        3.8974     1.05443     2.84295
   55          C          -0.031044        4.0310     1.07231     2.95873
   56          C          -0.031044        4.0310     1.07231     2.95873
   57          N          -0.360293        5.3603     1.61785     3.74245
   58          H           0.037345        0.9627     0.96266
   59          H           0.037345        0.9627     0.96266
   60          C           0.087944        3.9121     1.04406     2.86800
   61          C           0.087944        3.9121     1.04406     2.86800
   62          C          -0.037173        4.0372     1.09043     2.94674
   63          C          -0.037173        4.0372     1.09043     2.94674
   64          N          -0.113041        5.1130     1.24239     3.87065
   65          H           0.170707        0.8293     0.82929
   66          H           0.170707        0.8293     0.82929
   67          N          -0.113041        5.1130     1.24239     3.87065
   68          C          -0.037173        4.0372     1.09043     2.94674
   69          C          -0.037173        4.0372     1.09043     2.94674
   70          C           0.087944        3.9121     1.04406     2.86800
   71          C           0.087944        3.9121     1.04406     2.86800
   72          H           0.037345        0.9627     0.96266
   73          H           0.037345        0.9627     0.96266
   74          N          -0.360293        5.3603     1.61785     3.74245
   75          C          -0.031044        4.0310     1.07231     2.95873
   76          C          -0.031044        4.0310     1.07231     2.95873
   77          C           0.102617        3.8974     1.05443     2.84295
   78          C           0.102617        3.8974     1.05443     2.84295
   79          H           0.027637        0.9724     0.97236
   80          H           0.027637        0.9724     0.97236
   81          C           0.137669        3.8623     1.05585     2.80648
   82          C           0.137669        3.8623     1.05585     2.80648
   83          N          -0.271739        5.2717     1.59148     3.68026
   84          N          -0.271739        5.2717     1.59148     3.68026
   85          C           0.097702        3.9023     1.04968     2.85262
   86          C           0.097702        3.9023     1.04968     2.85262
   87          C          -0.030507        4.0305     1.08543     2.94508
   88          C          -0.030507        4.0305     1.08543     2.94508
   89          H           0.030609        0.9694     0.96939
   90          H           0.030609        0.9694     0.96939
   91          C           0.097410        3.9026     1.04961     2.85298
   92          C           0.097410        3.9026     1.04961     2.85298
   93          N          -0.270363        5.2704     1.59152     3.67884
   94          N          -0.270363        5.2704     1.59152     3.67884
   95          C           0.139553        3.8604     1.05643     2.80402
   96          C           0.139553        3.8604     1.05643     2.80402
   97          H           0.025489        0.9745     0.97451
   98          H           0.025489        0.9745     0.97451
   99          C           0.115580        3.8844     1.05694     2.82748
  100          C           0.115580        3.8844     1.05694     2.82748
  101          C          -0.047999        4.0480     1.06945     2.97855
  102          C          -0.047999        4.0480     1.06945     2.97855
  103          N          -0.373090        5.3731     1.61812     3.75497
  104          H           0.036315        0.9637     0.96368
  105          H           0.036315        0.9637     0.96368
  106          C           0.104272        3.8957     1.04708     2.84865
  107          C           0.104272        3.8957     1.04708     2.84865
  108          C          -0.046600        4.0466     1.08899     2.95761
  109          C          -0.046600        4.0466     1.08899     2.95761
  110          N          -0.111242        5.1112     1.24322     3.86802
  111          N          -0.111242        5.1112     1.24322     3.86802
  112          H           0.173633        0.8264     0.82637
  113          H           0.173633        0.8264     0.82637
  114          C          -0.028740        4.0287     1.09235     2.93639
  115          C          -0.028740        4.0287     1.09235     2.93639
  116          C           0.072133        3.9279     1.04119     2.88668
  117          C           0.072133        3.9279     1.04119     2.88668
  118          H           0.036301        0.9637     0.96370
  119          H           0.036301        0.9637     0.96370
  120          N          -0.398407        5.3984     1.62906     3.76934
  121          C          -0.012112        4.0121     1.08057     2.93154
  122          C          -0.012112        4.0121     1.08057     2.93154
  123          C           0.095690        3.9043     1.05252     2.85179
  124          C           0.095690        3.9043     1.05252     2.85179
  125          H           0.021558        0.9784     0.97844
  126          H           0.021558        0.9784     0.97844
  127          C          -0.042029        4.0420     1.09659     2.94543
  128          C          -0.042029        4.0420     1.09659     2.94543
  129          H           0.027155        0.9728     0.97284
  130          H           0.027155        0.9728     0.97284
 DIPOLE           X         Y         Z       TOTAL
 POINT-CHG.    -0.000     0.000     0.000     0.000
 HYBRID         0.000     0.000    -0.000     0.000
 SUM           -0.000     0.000    -0.000     0.000


          ATOMIC ORBITAL ELECTRON POPULATIONS

     Atom    s        px        py        pz   
    1  H   0.97284
    2  H   0.97284
    3  C   1.09659   0.94256   0.98542   1.01746
    4  C   1.09659   0.94256   0.98542   1.01746
    5  H   0.97844
    6  H   0.97844
    7  C   1.05252   0.97832   0.93157   0.94191
    8  C   1.05252   0.97832   0.93157   0.94191
    9  C   1.08057   0.95243   0.97120   1.00792
   10  C   1.08057   0.95243   0.97120   1.00792
   11  N   1.62906   1.34140   1.06780   1.36015
   12  H   0.96370
   13  H   0.96370
   14  C   1.04119   0.91501   0.96364   1.00803
   15  C   1.04119   0.91501   0.96364   1.00803
   16  C   1.09235   0.98626   0.94704   1.00309
   17  C   1.09235   0.98626   0.94704   1.00309
   18  H   0.82637
   19  H   0.82637
   20  N   1.24322   1.11806   1.07130   1.67866
   21  N   1.24322   1.11806   1.07130   1.67866
   22  C   1.08899   0.98044   0.94105   1.03612
   23  C   1.08899   0.98044   0.94105   1.03612
   24  C   1.04708   0.92217   0.97185   0.95463
   25  C   1.04708   0.92217   0.97185   0.95463
   26  H   0.96368
   27  H   0.96368
   28  N   1.61812   1.37344   1.06388   1.31764
   29  C   1.06945   0.94320   0.95861   1.07674
   30  C   1.06945   0.94320   0.95861   1.07674
   31  C   1.05694   0.96498   0.94401   0.91850
   32  C   1.05694   0.96498   0.94401   0.91850
   33  H   0.97451
   34  H   0.97451
   35  C   1.05643   0.93259   0.98181   0.88962
   36  C   1.05643   0.93259   0.98181   0.88962
   37  N   1.59152   1.07842   1.44193   1.15849
   38  N   1.59152   1.07842   1.44193   1.15849
   39  C   1.04961   0.93667   0.95714   0.95918
   40  C   1.04961   0.93667   0.95714   0.95918
   41  H   0.96939
   42  H   0.96939
   43  C   1.08543   0.97039   0.95369   1.02100
   44  C   1.08543   0.97039   0.95369   1.02100
   45  C   1.04968   0.93676   0.95715   0.95870
   46  C   1.04968   0.93676   0.95715   0.95870
   47  N   1.59148   1.07838   1.44188   1.16000
   48  N   1.59148   1.07838   1.44188   1.16000
   49  C   1.05585   0.93229   0.98180   0.89239
   50  C   1.05585   0.93229   0.98180   0.89239
   51  H   0.97236
   52  H   0.97236
   53  C   1.05443   0.96349   0.93906   0.94039
   54  C   1.05443   0.96349   0.93906   0.94039
   55  C   1.07231   0.94801   0.96319   1.04754
   56  C   1.07231   0.94801   0.96319   1.04754
   57  N   1.61785   1.37795   1.06858   1.29592
   58  H   0.96266
   59  H   0.96266
   60  C   1.04406   0.91777   0.96828   0.98195
   61  C   1.04406   0.91777   0.96828   0.98195
   62  C   1.09043   0.98330   0.94373   1.01971
   63  C   1.09043   0.98330   0.94373   1.01971
   64  N   1.24239   1.11894   1.06947   1.68224
   65  H   0.82929
   66  H   0.82929
   67  N   1.24239   1.11894   1.06947   1.68224
   68  C   1.09043   0.98330   0.94373   1.01971
   69  C   1.09043   0.98330   0.94373   1.01971
   70  C   1.04406   0.91777   0.96828   0.98195
   71  C   1.04406   0.91777   0.96828   0.98195
   72  H   0.96266
   73  H   0.96266
   74  N   1.61785   1.37795   1.06858   1.29592
   75  C   1.07231   0.94801   0.96319   1.04754
   76  C   1.07231   0.94801   0.96319   1.04754
   77  C   1.05443   0.96349   0.93906   0.94039
   78  C   1.05443   0.96349   0.93906   0.94039
   79  H   0.97236
   80  H   0.97236
   81  C   1.05585   0.93229   0.98180   0.89239
   82  C   1.05585   0.93229   0.98180   0.89239
   83  N   1.59148   1.07838   1.44188   1.16000
   84  N   1.59148   1.07838   1.44188   1.16000
   85  C   1.04968   0.93676   0.95715   0.95870
   86  C   1.04968   0.93676   0.95715   0.95870
   87  C   1.08543   0.97039   0.95369   1.02100
   88  C   1.08543   0.97039   0.95369   1.02100
   89  H   0.96939
   90  H   0.96939
   91  C   1.04961   0.93667   0.95714   0.95918
   92  C   1.04961   0.93667   0.95714   0.95918
   93  N   1.59152   1.07842   1.44193   1.15849
   94  N   1.59152   1.07842   1.44193   1.15849
   95  C   1.05643   0.93259   0.98181   0.88962
   96  C   1.05643   0.93259   0.98181   0.88962
   97  H   0.97451
   98  H   0.97451
   99  C   1.05694   0.96498   0.94401   0.91850
  100  C   1.05694   0.96498   0.94401   0.91850
  101  C   1.06945   0.94320   0.95861   1.07674
  102  C   1.06945   0.94320   0.95861   1.07674
  103  N   1.61812   1.37344   1.06389   1.31764
  104  H   0.96368
  105  H   0.96368
  106  C   1.04708   0.92217   0.97185   0.95463
  107  C   1.04708   0.92217   0.97185   0.95463
  108  C   1.08899   0.98044   0.94105   1.03612
  109  C   1.08899   0.98044   0.94105   1.03612
  110  N   1.24322   1.11806   1.07130   1.67866
  111  N   1.24322   1.11806   1.07130   1.67866
  112  H   0.82637
  113  H   0.82637
  114  C   1.09235   0.98626   0.94704   1.00309
  115  C   1.09235   0.98626   0.94704   1.00309
  116  C   1.04119   0.91501   0.96365   1.00803
  117  C   1.04119   0.91501   0.96365   1.00803
  118  H   0.96370
  119  H   0.96370
  120  N   1.62906   1.34140   1.06780   1.36015
  121  C   1.08057   0.95243   0.97120   1.00791
  122  C   1.08057   0.95243   0.97120   1.00791
  123  C   1.05252   0.97832   0.93157   0.94191
  124  C   1.05252   0.97832   0.93157   0.94191
  125  H   0.97844
  126  H   0.97844
  127  C   1.09659   0.94256   0.98542   1.01746
  128  C   1.09659   0.94256   0.98542   1.01746
  129  H   0.97284
  130  H   0.97284

 **********************
 *                    *
 * JOB ENDED NORMALLY *
 *                    *
 **********************



 TOTAL JOB TIME:           664.36 SECONDS

 == MOPAC DONE ==


          MOPAC Job: "p3b2.mop" ended normally on Jun 29, 2020, at 13:11.

