 *******************************************************************************
 ** Site#:    0         For non-commercial use only    Version 20.173L 64BITS **
 *******************************************************************************
 ** Cite this program as: MOPAC2016, Version: 20.173L, James J. P. Stewart,   **
 ** Stewart Computational Chemistry, web-site: HTTP://OpenMOPAC.net.          **
 *******************************************************************************
 **                                                                           **
 **                                MOPAC2016                                  **
 **                                                                           **
 *******************************************************************************

                              INDO CALCULATION RESULTS

 *******************************************************************************
 *  CALCULATION DONE:                                Mon Jun 29 13:16:08 2020  *
 *  INDO       - The INDO Hamiltonian to be used
 *  CISD       - C.I. USES 1 AND 2 ELECTRON EXCITATIONS
 *
 *
 *
 *                 CHARGE ON SYSTEM = 0
 *
 *
 *
 * C.I.D.=(N,M)-  1 DOUBLY FILLED LEVELS USED IN A
 *             CI DOUBLES INVOLVING  2 M.O.'S
 *  T=         - A TIME OF 172800.0 SECONDS REQUESTED
 *  DUMP=N     - RESTART FILE WRITTEN EVERY 7200.0 SECONDS REQUESTED
 *******************************************************************************
INDO CISD CHARGE=0 C.I.D.=(2,1)


   ATOM   CHEMICAL          X               Y               Z
  NUMBER   SYMBOL      (ANGSTROMS)     (ANGSTROMS)     (ANGSTROMS)
 
     1       C          0.13642800  *   4.31261200  *   0.00000000  *
     2       C          0.65084500  *   3.07095700  *   0.00000000  *
     3       C         -0.13642800  *   1.85596900  *   0.00000000  *
     4       C          0.38926300  *   0.60631000  *   0.00000000  *
     5       C         -0.38926300  *  -0.60631000  *   0.00000000  *
     6       C          0.13642800  *  -1.85596900  *   0.00000000  *
     7       C         -0.65084500  *  -3.07095700  *   0.00000000  *
     8       C         -0.13642800  *  -4.31261200  *   0.00000000  *
     9       H          0.77042500  *   5.19381900  *   0.00000000  *
    10       H         -0.93776100  *   4.48341300  *   0.00000000  *
    11       H          1.73423700  *   2.94537900  *   0.00000000  *
    12       H         -1.22106200  *   1.97279000  *   0.00000000  *
    13       H          1.47457700  *   0.49428800  *   0.00000000  *
    14       H         -1.47457700  *  -0.49428800  *   0.00000000  *
    15       H          1.22106200  *  -1.97279000  *   0.00000000  *
    16       H         -1.73423700  *  -2.94537900  *   0.00000000  *
    17       H          0.93776100  *  -4.48341300  *   0.00000000  *
    18       H         -0.77042500  *  -5.19381900  *   0.00000000  *
 


          CARTESIAN COORDINATES 

    NO.       ATOM           X           Y           Z

     1         C          0.1364      4.3126      0.0000
     2         C          0.6508      3.0710      0.0000
     3         C         -0.1364      1.8560      0.0000
     4         C          0.3893      0.6063      0.0000
     5         C         -0.3893     -0.6063      0.0000
     6         C          0.1364     -1.8560      0.0000
     7         C         -0.6508     -3.0710      0.0000
     8         C         -0.1364     -4.3126      0.0000
     9         H          0.7704      5.1938      0.0000
    10         H         -0.9378      4.4834      0.0000
    11         H          1.7342      2.9454      0.0000
    12         H         -1.2211      1.9728      0.0000
    13         H          1.4746      0.4943      0.0000
    14         H         -1.4746     -0.4943      0.0000
    15         H          1.2211     -1.9728      0.0000
    16         H         -1.7342     -2.9454      0.0000
    17         H          0.9378     -4.4834      0.0000
    18         H         -0.7704     -5.1938      0.0000

           Empirical Formula: C8 H10  =    18 atoms



      MOLECULAR POINT GROUP   :   C2h 


      RHF CALCULATION, NO. OF DOUBLY OCCUPIED LEVELS = 21

 WARNING: INDO only performs single-point calculations

 Summary of symmetry occupancy in each shell:

 SHELL     
    1   21
    v   21
 TOTAL  42




    ROOT NO.    1           2           3           4           5           6

           -40.18409   -38.11453   -35.02602   -31.26250   -26.60496   -24.72015
  
  
  S  C   1   0.15648     0.28333     0.35735    -0.36108     0.32421    -0.08539
 PX  C   1   0.01124     0.02285     0.03360    -0.03737     0.01539     0.11218
 PY  C   1  -0.06793    -0.10827    -0.09771     0.02574     0.11501    -0.02805
 PZ  C   1   0.00000     0.00000     0.00000    -0.00000    -0.00000     0.00000
  
  S  C   2   0.27046     0.40049     0.32959    -0.11198    -0.14956     0.16488
 PX  C   2  -0.04418    -0.06608    -0.05212     0.00937     0.02481     0.17555
 PY  C   2  -0.04808    -0.01547     0.11130    -0.24420     0.26965    -0.04584
 PZ  C   2  -0.00000    -0.00000    -0.00000     0.00000    -0.00000    -0.00000
  
  S  C   3   0.37049     0.35027    -0.01626     0.30834    -0.24158    -0.17784
 PX  C   3   0.04964     0.06133     0.01718     0.05238    -0.08997     0.25358
 PY  C   3  -0.04763     0.06072     0.21120    -0.14321    -0.16550     0.03418
 PZ  C   3  -0.00000    -0.00000    -0.00000     0.00000    -0.00000     0.00000
  
  S  C   4   0.41936     0.14747    -0.32819     0.23600     0.19101     0.15320
 PX  C   4  -0.06039    -0.00978     0.06716    -0.02569    -0.07460     0.28623
 PY  C   4  -0.00001     0.13938     0.09466     0.21568    -0.24246    -0.06154
 PZ  C   4  -0.00000    -0.00000    -0.00000     0.00000     0.00000    -0.00000
  
  S  C   5   0.41936    -0.14747    -0.32819    -0.23600     0.19101    -0.15320
 PX  C   5   0.06039    -0.00978    -0.06716    -0.02569     0.07460     0.28623
 PY  C   5   0.00001     0.13938    -0.09466     0.21568     0.24246    -0.06154
 PZ  C   5  -0.00000    -0.00000     0.00000     0.00000    -0.00000    -0.00000
  
  S  C   6   0.37049    -0.35027    -0.01626    -0.30834    -0.24158     0.17784
 PX  C   6  -0.04964     0.06133    -0.01718     0.05238     0.08997     0.25358
 PY  C   6   0.04763     0.06072    -0.21120    -0.14321     0.16550     0.03418
 PZ  C   6   0.00000    -0.00000    -0.00000     0.00000    -0.00000    -0.00000
  
  S  C   7   0.27046    -0.40049     0.32959     0.11198    -0.14956    -0.16488
 PX  C   7   0.04418    -0.06608     0.05212     0.00937    -0.02481     0.17555
 PY  C   7   0.04808    -0.01547    -0.11130    -0.24420    -0.26965    -0.04584
 PZ  C   7  -0.00000    -0.00000    -0.00000     0.00000     0.00000     0.00000
  
  S  C   8   0.15648    -0.28333     0.35735     0.36108     0.32421     0.08539
 PX  C   8  -0.01124     0.02285    -0.03360    -0.03737    -0.01539     0.11218
 PY  C   8   0.06793    -0.10827     0.09771     0.02574    -0.11501    -0.02805
 PZ  C   8  -0.00000    -0.00000    -0.00000     0.00000     0.00000     0.00000
  
  S  H   9   0.04984     0.09737     0.14133    -0.17772     0.22426    -0.01488
  
  S  H  10   0.06514     0.11652     0.14587    -0.15114     0.16175    -0.12539
  
  S  H  11   0.11160     0.15870     0.12126    -0.03130    -0.07732     0.21167
  
  S  H  12   0.15155     0.13949    -0.00447     0.10712    -0.07022    -0.26653
  
  S  H  13   0.17234     0.05808    -0.12480     0.08496     0.06068     0.28488
  
  S  H  14   0.17234    -0.05808    -0.12480    -0.08496     0.06068    -0.28488
  
  S  H  15   0.15155    -0.13949    -0.00447    -0.10712    -0.07022     0.26653
  
  S  H  16   0.11160    -0.15870     0.12126     0.03130    -0.07732    -0.21167
  
  S  H  17   0.06514    -0.11652     0.14587     0.15114     0.16175     0.12539
  
  S  H  18   0.04984    -0.09737     0.14133     0.17772     0.22426     0.01488




    ROOT NO.    7           8           9          10          11          12

           -22.86493   -22.65749   -20.09911   -18.94038   -17.37719   -15.84646
  
  
  S  C   1  -0.07562    -0.23705    -0.02480     0.10068     0.01151     0.01363
 PX  C   1   0.21116     0.04319     0.27993    -0.13557    -0.27147     0.21896
 PY  C   1  -0.01551    -0.25599     0.07584     0.32630    -0.20942    -0.29539
 PZ  C   1   0.00000     0.00000     0.00000     0.00000     0.00000     0.00000
  
  S  C   2   0.19185     0.24821     0.06141    -0.14065     0.05971    -0.02325
 PX  C   2   0.28382    -0.02994     0.29170     0.03471    -0.18850    -0.12255
 PY  C   2   0.02696    -0.07705     0.11388    -0.23179    -0.02433     0.36839
 PZ  C   2  -0.00000     0.00000    -0.00000    -0.00000     0.00000    -0.00000
  
  S  C   3  -0.21294     0.01821    -0.01737     0.06872    -0.16682    -0.01819
 PX  C   3   0.22498    -0.03711    -0.03020     0.22974     0.19393    -0.20748
 PY  C   3  -0.07009     0.28554    -0.24603    -0.07950     0.15061    -0.11756
 PZ  C   3   0.00000     0.00000     0.00000     0.00000     0.00000    -0.00000
  
  S  C   4   0.09379    -0.25985    -0.04828    -0.01801     0.10521     0.14836
 PX  C   4   0.09639    -0.07300    -0.25213     0.16565     0.16535     0.11645
 PY  C   4  -0.01308    -0.13446     0.13799     0.31780    -0.12959    -0.01640
 PZ  C   4   0.00000     0.00000     0.00000    -0.00000     0.00000     0.00000
  
  S  C   5   0.09379     0.25985     0.04828    -0.01801     0.10521    -0.14836
 PX  C   5  -0.09639    -0.07300    -0.25213    -0.16565    -0.16535     0.11645
 PY  C   5   0.01308    -0.13446     0.13799    -0.31780     0.12959    -0.01640
 PZ  C   5  -0.00000     0.00000    -0.00000    -0.00000     0.00000     0.00000
  
  S  C   6  -0.21294    -0.01821     0.01737     0.06872    -0.16682     0.01819
 PX  C   6  -0.22498    -0.03711    -0.03020    -0.22974    -0.19393    -0.20748
 PY  C   6   0.07009     0.28554    -0.24603     0.07950    -0.15061    -0.11756
 PZ  C   6   0.00000     0.00000     0.00000     0.00000     0.00000    -0.00000
  
  S  C   7   0.19185    -0.24821    -0.06141    -0.14065     0.05971     0.02325
 PX  C   7  -0.28382    -0.02994     0.29170    -0.03471     0.18850    -0.12255
 PY  C   7  -0.02696    -0.07705     0.11388     0.23179     0.02433     0.36839
 PZ  C   7  -0.00000    -0.00000    -0.00000    -0.00000    -0.00000    -0.00000
  
  S  C   8  -0.07562     0.23705     0.02480     0.10068     0.01151    -0.01363
 PX  C   8  -0.21116     0.04319     0.27993     0.13557     0.27147     0.21896
 PY  C   8   0.01551    -0.25599     0.07584    -0.32630     0.20942    -0.29539
 PZ  C   8  -0.00000    -0.00000     0.00000     0.00000    -0.00000    -0.00000
  
  S  H   9   0.03714    -0.24276     0.15315     0.19073    -0.26139    -0.08345
  
  S  H  10  -0.19074    -0.17451    -0.21011     0.18640     0.19289    -0.20822
  
  S  H  11   0.29545     0.10673     0.23039    -0.02260    -0.10971    -0.14662
  
  S  H  12  -0.27154     0.05636    -0.00683    -0.13661    -0.21668     0.14109
  
  S  H  13   0.11595    -0.17276    -0.21456     0.08614     0.18649     0.16906
  
  S  H  14   0.11595     0.17276     0.21456     0.08614     0.18649    -0.16906
  
  S  H  15  -0.27154    -0.05636     0.00683    -0.13661    -0.21668    -0.14109
  
  S  H  16   0.29545    -0.10673    -0.23039    -0.02260    -0.10971     0.14662
  
  S  H  17  -0.19074     0.17451     0.21011     0.18640     0.19289     0.20822
  
  S  H  18   0.03714     0.24276    -0.15315     0.19073    -0.26139     0.08345




    ROOT NO.   13          14          15          16          17          18

           -14.72784   -13.99746   -13.28861   -13.16947   -12.70067   -12.63575
  
  
  S  C   1  -0.03726     0.05019    -0.04638    -0.03796    -0.00000     0.01991
 PX  C   1   0.21046     0.29185     0.01309    -0.23235    -0.00000    -0.13241
 PY  C   1   0.26595    -0.11549     0.15296    -0.01376    -0.00000    -0.16933
 PZ  C   1  -0.00000     0.00000    -0.00000    -0.00000     0.19081    -0.00000
  
  S  C   2  -0.05266    -0.05149    -0.01620    -0.02141    -0.00000    -0.06253
 PX  C   2   0.01744    -0.27255     0.08024     0.32210     0.00000     0.19479
 PY  C   2  -0.15930     0.16609    -0.12780     0.06324     0.00000     0.24843
 PZ  C   2  -0.00000     0.00000    -0.00000    -0.00000     0.29744    -0.00000
  
  S  C   3   0.09996     0.03620    -0.05657    -0.05824    -0.00000    -0.02038
 PX  C   3  -0.20330     0.04586    -0.23079    -0.29021    -0.00000    -0.17833
 PY  C   3   0.22952    -0.02447     0.25902    -0.06842     0.00000    -0.27223
 PZ  C   3  -0.00000    -0.00000    -0.00000    -0.00000     0.40939    -0.00000
  
  S  C   4  -0.06281     0.00756    -0.05100     0.01810    -0.00000    -0.05054
 PX  C   4   0.17611     0.23917     0.32475     0.09283     0.00000     0.18948
 PY  C   4  -0.16490     0.18834    -0.21316    -0.06583    -0.00000     0.29060
 PZ  C   4  -0.00000    -0.00000    -0.00000    -0.00000     0.45554    -0.00000
  
  S  C   5   0.06281     0.00756    -0.05100    -0.01810    -0.00000    -0.05054
 PX  C   5   0.17611    -0.23917    -0.32475     0.09283    -0.00000    -0.18948
 PY  C   5  -0.16490    -0.18834     0.21316    -0.06583    -0.00000    -0.29060
 PZ  C   5  -0.00000    -0.00000    -0.00000    -0.00000     0.45554    -0.00000
  
  S  C   6  -0.09996     0.03620    -0.05657     0.05824    -0.00000    -0.02038
 PX  C   6  -0.20330    -0.04586     0.23079    -0.29021     0.00000     0.17833
 PY  C   6   0.22952     0.02447    -0.25902    -0.06842    -0.00000     0.27223
 PZ  C   6  -0.00000    -0.00000    -0.00000    -0.00000     0.40939    -0.00000
  
  S  C   7   0.05266    -0.05149    -0.01620     0.02141    -0.00000    -0.06253
 PX  C   7   0.01744     0.27255    -0.08024     0.32210    -0.00000    -0.19479
 PY  C   7  -0.15930    -0.16609     0.12780     0.06324    -0.00000    -0.24843
 PZ  C   7  -0.00000    -0.00000    -0.00000    -0.00000     0.29744    -0.00000
  
  S  C   8   0.03726     0.05019    -0.04638     0.03796    -0.00000     0.01991
 PX  C   8   0.21046    -0.29185    -0.01309    -0.23235    -0.00000     0.13241
 PY  C   8   0.26595     0.11549    -0.15296    -0.01376     0.00000     0.16933
 PZ  C   8  -0.00000     0.00000    -0.00000    -0.00000     0.19081     0.00000
  
  S  H   9   0.29142     0.10636     0.10595    -0.16832    -0.00000    -0.20740
  
  S  H  10  -0.16673    -0.25837    -0.00866     0.21332     0.00000     0.12880
  
  S  H  11   0.00827    -0.28737     0.09673     0.29381     0.00000     0.13513
  
  S  H  12   0.24463    -0.02606     0.22968     0.24199     0.00000     0.14895
  
  S  H  13   0.12783     0.19070     0.31746     0.10899     0.00000     0.14334
  
  S  H  14  -0.12783     0.19070     0.31746    -0.10899     0.00000     0.14334
  
  S  H  15  -0.24463    -0.02606     0.22968    -0.24199     0.00000     0.14895
  
  S  H  16  -0.00827    -0.28737     0.09673    -0.29381     0.00000     0.13513
  
  S  H  17   0.16673    -0.25837    -0.00866    -0.21332    -0.00000     0.12880
  
  S  H  18  -0.29142     0.10636     0.10595     0.16832     0.00000    -0.20740




    ROOT NO.   19          20          21          22          23          24

           -11.37526    -9.49409    -7.42581    -0.45492     1.09247     2.22090
  
  
  S  C   1  -0.00000    -0.00000    -0.00000     0.00000     0.00000     0.00000
 PX  C   1   0.00000    -0.00000     0.00000     0.00000     0.00000    -0.00000
 PY  C   1   0.00000    -0.00000     0.00000     0.00000     0.00000    -0.00000
 PZ  C   1   0.35343     0.44640    -0.38636    -0.38038     0.43610    -0.34588
  
  S  C   2  -0.00000    -0.00000     0.00000    -0.00000    -0.00000    -0.00000
 PX  C   2   0.00000     0.00000    -0.00000     0.00000    -0.00000    -0.00000
 PY  C   2  -0.00000     0.00000    -0.00000     0.00000     0.00000     0.00000
 PZ  C   2   0.45428     0.39984    -0.19152     0.20016    -0.40710     0.46000
  
  S  C   3  -0.00000     0.00000     0.00000     0.00000     0.00000     0.00000
 PX  C   3  -0.00000    -0.00000    -0.00000    -0.00000     0.00000     0.00000
 PY  C   3  -0.00000     0.00000     0.00000     0.00000    -0.00000    -0.00000
 PZ  C   3   0.37005    -0.09434     0.43234     0.43155    -0.09393    -0.37049
  
  S  C   4  -0.00000     0.00000    -0.00000    -0.00000    -0.00000    -0.00000
 PX  C   4   0.00000    -0.00000     0.00000     0.00000     0.00000     0.00000
 PY  C   4   0.00000    -0.00000    -0.00000    -0.00000    -0.00000    -0.00000
 PZ  C   4   0.17828    -0.36327     0.35655    -0.35919     0.36778     0.17749
  
  S  C   5  -0.00000    -0.00000     0.00000     0.00000     0.00000     0.00000
 PX  C   5  -0.00000     0.00000    -0.00000    -0.00000    -0.00000    -0.00000
 PY  C   5   0.00000    -0.00000     0.00000     0.00000     0.00000     0.00000
 PZ  C   5  -0.17828    -0.36327    -0.35655    -0.35919    -0.36778     0.17749
  
  S  C   6  -0.00000     0.00000    -0.00000     0.00000     0.00000     0.00000
 PX  C   6   0.00000    -0.00000    -0.00000    -0.00000    -0.00000    -0.00000
 PY  C   6   0.00000     0.00000    -0.00000    -0.00000    -0.00000    -0.00000
 PZ  C   6  -0.37005    -0.09434    -0.43234     0.43155     0.09393    -0.37049
  
  S  C   7  -0.00000     0.00000    -0.00000    -0.00000    -0.00000    -0.00000
 PX  C   7  -0.00000     0.00000     0.00000    -0.00000    -0.00000    -0.00000
 PY  C   7  -0.00000     0.00000     0.00000    -0.00000    -0.00000    -0.00000
 PZ  C   7  -0.45428     0.39984     0.19152     0.20016     0.40710     0.46000
  
  S  C   8  -0.00000     0.00000    -0.00000     0.00000     0.00000     0.00000
 PX  C   8   0.00000    -0.00000    -0.00000     0.00000     0.00000     0.00000
 PY  C   8   0.00000     0.00000     0.00000    -0.00000     0.00000    -0.00000
 PZ  C   8  -0.35343     0.44640     0.38636    -0.38038    -0.43610    -0.34588
  
  S  H   9  -0.00000    -0.00000     0.00000    -0.00000    -0.00000    -0.00000
  
  S  H  10   0.00000     0.00000    -0.00000    -0.00000    -0.00000    -0.00000
  
  S  H  11   0.00000     0.00000    -0.00000     0.00000     0.00000     0.00000
  
  S  H  12   0.00000    -0.00000    -0.00000    -0.00000    -0.00000    -0.00000
  
  S  H  13   0.00000    -0.00000     0.00000     0.00000     0.00000     0.00000
  
  S  H  14   0.00000    -0.00000     0.00000    -0.00000    -0.00000    -0.00000
  
  S  H  15   0.00000    -0.00000    -0.00000     0.00000    -0.00000    -0.00000
  
  S  H  16   0.00000    -0.00000     0.00000     0.00000     0.00000     0.00000
  
  S  H  17   0.00000     0.00000    -0.00000    -0.00000    -0.00000    -0.00000
  
  S  H  18  -0.00000     0.00000     0.00000    -0.00000    -0.00000     0.00000




    ROOT NO.   25          26          27          28          29          30

             2.85863     3.02519     3.53446     4.03389     4.45343     4.82278
  
  
  S  C   1   0.00000    -0.18230    -0.28555     0.31355     0.31396     0.26674
 PX  C   1  -0.00000    -0.02269    -0.01709    -0.00677    -0.03439    -0.05393
 PY  C   1  -0.00000     0.05470     0.05349    -0.01061     0.06222     0.14040
 PZ  C   1   0.18877     0.00000    -0.00000     0.00000     0.00000     0.00000
  
  S  C   2  -0.00000     0.27478     0.36092    -0.25558    -0.04286     0.15303
 PX  C   2   0.00000    -0.04516    -0.02465    -0.01818    -0.02380     0.03706
 PY  C   2   0.00000    -0.06426    -0.01505    -0.09192    -0.18116    -0.17972
 PZ  C   2  -0.30203    -0.00000    -0.00000     0.00000     0.00000    -0.00000
  
  S  C   3   0.00000    -0.34491    -0.30383    -0.02904    -0.28989    -0.23054
 PX  C   3   0.00000    -0.04364    -0.02652     0.02007     0.06036     0.07058
 PY  C   3   0.00000     0.02679    -0.09309     0.17413     0.06114    -0.12227
 PZ  C   3   0.40905    -0.00000    -0.00000    -0.00000    -0.00000     0.00000
  
  S  C   4  -0.00000     0.37870     0.11340     0.31825     0.19451    -0.17732
 PX  C   4   0.00000    -0.05115     0.00634     0.00802     0.04954    -0.04814
 PY  C   4  -0.00000    -0.01955     0.13162    -0.09963     0.13375     0.14959
 PZ  C   4  -0.45368     0.00000     0.00000     0.00000     0.00000    -0.00000
  
  S  C   5   0.00000    -0.37870     0.11340    -0.31825     0.19451     0.17732
 PX  C   5  -0.00000    -0.05115    -0.00634     0.00802    -0.04954    -0.04814
 PY  C   5   0.00000    -0.01955    -0.13162    -0.09963    -0.13375     0.14959
 PZ  C   5   0.45368    -0.00000    -0.00000    -0.00000    -0.00000     0.00000
  
  S  C   6   0.00000     0.34491    -0.30383     0.02904    -0.28989     0.23054
 PX  C   6   0.00000    -0.04364     0.02652     0.02007    -0.06036     0.07058
 PY  C   6  -0.00000     0.02679     0.09309     0.17413    -0.06114    -0.12227
 PZ  C   6  -0.40905    -0.00000    -0.00000    -0.00000    -0.00000     0.00000
  
  S  C   7  -0.00000    -0.27478     0.36092     0.25558    -0.04286    -0.15303
 PX  C   7  -0.00000    -0.04516     0.02465    -0.01818     0.02380     0.03706
 PY  C   7  -0.00000    -0.06426     0.01505    -0.09192     0.18116    -0.17972
 PZ  C   7   0.30203     0.00000     0.00000     0.00000     0.00000    -0.00000
  
  S  C   8   0.00000     0.18230    -0.28555    -0.31355     0.31396    -0.26674
 PX  C   8  -0.00000    -0.02269     0.01709    -0.00677     0.03439    -0.05393
 PY  C   8   0.00000     0.05470    -0.05349    -0.01061    -0.06222     0.14040
 PZ  C   8  -0.18877    -0.00000    -0.00000    -0.00000    -0.00000     0.00000
  
  S  H   9  -0.00000     0.11649     0.17268    -0.18725    -0.21316    -0.23184
  
  S  H  10  -0.00000     0.08484     0.16456    -0.22151    -0.25623    -0.23550
  
  S  H  11   0.00000    -0.14257    -0.22782     0.19441     0.03399    -0.15712
  
  S  H  12  -0.00000     0.18118     0.19609     0.02135     0.26212     0.23323
  
  S  H  13   0.00000    -0.19917    -0.07115    -0.24942    -0.17493     0.17784
  
  S  H  14  -0.00000     0.19917    -0.07115     0.24942    -0.17493    -0.17784
  
  S  H  15  -0.00000    -0.18118     0.19609    -0.02135     0.26212    -0.23323
  
  S  H  16  -0.00000     0.14257    -0.22782    -0.19441     0.03399     0.15712
  
  S  H  17  -0.00000    -0.08484     0.16456     0.22151    -0.25623     0.23550
  
  S  H  18   0.00000    -0.11649     0.17268     0.18725    -0.21316     0.23184




    ROOT NO.   31          32          33          34          35          36

             5.36732     5.94660     6.34063     7.61307     7.63118     8.34458
  
  
  S  C   1  -0.16650     0.08242     0.03067     0.00013     0.00133    -0.00039
 PX  C   1   0.05578    -0.03282    -0.00780     0.46854     0.47610    -0.09439
 PY  C   1  -0.19364     0.16692     0.08151     0.14763     0.15588    -0.12403
 PZ  C   1   0.00000    -0.00000     0.00000    -0.00000    -0.00000    -0.00000
  
  S  C   2  -0.25418     0.20890     0.10138    -0.03829    -0.03729    -0.04402
 PX  C   2  -0.16953     0.25916     0.18579     0.00834    -0.00727     0.22538
 PY  C   2   0.07799     0.01684     0.03071    -0.00294    -0.01051     0.08170
 PZ  C   2  -0.00000     0.00000    -0.00000     0.00000     0.00000     0.00000
  
  S  C   3  -0.04206     0.20276     0.15675     0.00722     0.00364     0.07916
 PX  C   3   0.04640    -0.24259    -0.25086     0.11595     0.09154     0.29968
 PY  C   3   0.16506    -0.01270     0.06624     0.01134     0.02273    -0.05984
 PZ  C   3   0.00000    -0.00000     0.00000    -0.00000    -0.00000    -0.00000
  
  S  C   4   0.21192     0.08334     0.19164    -0.01146    -0.00470    -0.09548
 PX  C   4   0.15515     0.08555     0.32715     0.06731     0.01865     0.37003
 PY  C   4   0.07635    -0.13068    -0.02201    -0.01352    -0.02934     0.00983
 PZ  C   4   0.00000     0.00000     0.00000    -0.00000    -0.00000    -0.00000
  
  S  C   5   0.21192    -0.08334     0.19164     0.01146    -0.00470     0.09548
 PX  C   5  -0.15515     0.08555    -0.32715     0.06731    -0.01865     0.37003
 PY  C   5  -0.07635    -0.13068     0.02201    -0.01352     0.02934     0.00983
 PZ  C   5  -0.00000     0.00000    -0.00000     0.00000     0.00000    -0.00000
  
  S  C   6  -0.04206    -0.20276     0.15675    -0.00722     0.00364    -0.07916
 PX  C   6  -0.04640    -0.24259     0.25086     0.11595    -0.09154     0.29968
 PY  C   6  -0.16506    -0.01270    -0.06624     0.01134    -0.02273    -0.05984
 PZ  C   6   0.00000    -0.00000    -0.00000    -0.00000    -0.00000    -0.00000
  
  S  C   7  -0.25418    -0.20890     0.10138     0.03829    -0.03729     0.04402
 PX  C   7   0.16953     0.25916    -0.18579     0.00834     0.00727     0.22538
 PY  C   7  -0.07799     0.01684    -0.03071    -0.00294     0.01051     0.08170
 PZ  C   7  -0.00000     0.00000    -0.00000     0.00000    -0.00000     0.00000
  
  S  C   8  -0.16650    -0.08242     0.03067    -0.00013     0.00133     0.00039
 PX  C   8  -0.05578    -0.03282     0.00780     0.46854    -0.47610    -0.09439
 PY  C   8   0.19364     0.16692    -0.08151     0.14763    -0.15588    -0.12403
 PZ  C   8   0.00000    -0.00000     0.00000    -0.00000     0.00000    -0.00000
  
  S  H   9   0.21671    -0.16251    -0.07959    -0.31643    -0.32423     0.10396
  
  S  H  10   0.15342    -0.06810    -0.01580     0.35188     0.35464    -0.04028
  
  S  H  11   0.30188    -0.30903    -0.18341    -0.03354    -0.02083    -0.15839
  
  S  H  12   0.04899    -0.28613    -0.25332     0.09847     0.07496     0.23291
  
  S  H  13  -0.24946    -0.11535    -0.32572    -0.06244    -0.01973    -0.28061
  
  S  H  14  -0.24946     0.11535    -0.32572     0.06244    -0.01973     0.28061
  
  S  H  15   0.04899     0.28613    -0.25332    -0.09847     0.07496    -0.23291
  
  S  H  16   0.30188     0.30903    -0.18341     0.03354    -0.02083     0.15839
  
  S  H  17   0.15342     0.06810    -0.01580    -0.35188     0.35464     0.04028
  
  S  H  18   0.21671     0.16251    -0.07959     0.31643    -0.32423    -0.10396




    ROOT NO.   37          38          39          40          41          42

             8.72193     9.01224     9.66639    10.57406    12.22329    13.98093
  
  
  S  C   1   0.01453    -0.02766    -0.05756    -0.08930     0.09670    -0.06328
 PX  C   1  -0.03490    -0.02876    -0.11011    -0.14581     0.11959    -0.06303
 PY  C   1  -0.16707     0.15508     0.23320     0.33306    -0.31491     0.18583
 PZ  C   1   0.00000    -0.00000     0.00000     0.00000     0.00000    -0.00000
  
  S  C   2  -0.09405     0.10087     0.10608     0.09367    -0.02011    -0.02236
 PX  C   2   0.35816    -0.33719    -0.25583    -0.14246    -0.02333     0.06249
 PY  C   2   0.08738    -0.02792     0.15068     0.33346    -0.42589     0.30035
 PZ  C   2  -0.00000     0.00000    -0.00000    -0.00000    -0.00000    -0.00000
  
  S  C   3   0.10219    -0.03725     0.08399     0.11288    -0.03294    -0.04179
 PX  C   3   0.37768    -0.18503     0.17868     0.23361    -0.09271    -0.01018
 PY  C   3   0.06015    -0.22001    -0.29377    -0.06905    -0.33992     0.39795
 PZ  C   3   0.00000    -0.00000     0.00000     0.00000    -0.00000     0.00000
  
  S  C   4  -0.04284    -0.09879    -0.10701     0.02796    -0.09434     0.00868
 PX  C   4   0.10287     0.36000     0.24961    -0.10283     0.12965     0.03574
 PY  C   4  -0.14685     0.15283    -0.24733    -0.30304    -0.15430     0.44285
 PZ  C   4  -0.00000     0.00000    -0.00000    -0.00000    -0.00000     0.00000
  
  S  C   5  -0.04284     0.09879    -0.10701    -0.02796    -0.09434    -0.00868
 PX  C   5  -0.10287     0.36000    -0.24961    -0.10283    -0.12965     0.03574
 PY  C   5   0.14685     0.15283     0.24733    -0.30304     0.15430     0.44285
 PZ  C   5   0.00000    -0.00000     0.00000     0.00000    -0.00000     0.00000
  
  S  C   6   0.10219     0.03725     0.08399    -0.11288    -0.03294     0.04179
 PX  C   6  -0.37768    -0.18503    -0.17868     0.23361     0.09271    -0.01018
 PY  C   6  -0.06015    -0.22001     0.29377    -0.06905     0.33992     0.39795
 PZ  C   6   0.00000    -0.00000     0.00000     0.00000    -0.00000    -0.00000
  
  S  C   7  -0.09405    -0.10087     0.10608    -0.09367    -0.02011     0.02236
 PX  C   7  -0.35816    -0.33719     0.25583    -0.14246     0.02333     0.06249
 PY  C   7  -0.08738    -0.02792    -0.15068     0.33346     0.42589     0.30035
 PZ  C   7  -0.00000    -0.00000    -0.00000    -0.00000    -0.00000     0.00000
  
  S  C   8   0.01453     0.02766    -0.05756     0.08930     0.09670     0.06328
 PX  C   8   0.03490    -0.02876     0.11011    -0.14581    -0.11959    -0.06303
 PY  C   8   0.16707     0.15508    -0.23320     0.33306     0.31491     0.18583
 PZ  C   8   0.00000     0.00000     0.00000     0.00000    -0.00000     0.00000
  
  S  H   9   0.09048    -0.05501    -0.06519    -0.10111     0.09749    -0.05597
  
  S  H  10   0.01046    -0.04581    -0.09072    -0.10610     0.07704    -0.03789
  
  S  H  11  -0.23641     0.20868     0.14992     0.09218    -0.01417    -0.01047
  
  S  H  12   0.25293    -0.09593     0.11530     0.11538    -0.02229    -0.02211
  
  S  H  13  -0.08397    -0.21234    -0.14936     0.03177    -0.06297     0.00472
  
  S  H  14  -0.08397     0.21234    -0.14936    -0.03177    -0.06297    -0.00472
  
  S  H  15   0.25293     0.09593     0.11530    -0.11538    -0.02229     0.02211
  
  S  H  16  -0.23641    -0.20868     0.14992    -0.09218    -0.01417     0.01047
  
  S  H  17   0.01046     0.04581    -0.09072     0.10610     0.07704     0.03789
  
  S  H  18   0.09048     0.05501    -0.06519     0.10111     0.09749     0.05597


 Reference determinate nber   1 is ALPHA 1 -  21
 SINGLE excitations FROM orbs   1 to  21 INTO orbs  22 to  42
 DOUBLE excitations FROM orbs  21 to  21 INTO orbs  22 to  22
 

 CI excitations= 1283:        =***
 The lowest 1283 spin-adapted configurations of multiplicity=  1
     sym   eV   cm**-1 -dets- dipole oscilator X FRAG ....Excitations named from first reference determinate
                       tot  #  Debye  strength
 
   1     -0.000      0.  1  1  0.0000 0.000000 0  0 (        )->(           )
   2      4.256  34328.  2  1  0.0000 1.853463 1  1 (  21    )->(  22       )
   3      5.592  45100.  2  1  0.0000 0.000000 1  1 (  21    )->(  23       )
   4      6.128  49424.  2  1  0.0000 0.000000 1  1 (  20    )->(  22       )
   5      6.195  49965.  2  1  0.0000 0.000013 1  1 (  21    )->(  26       )
   6      6.267  50544.  1  1  0.0000 0.000000 2  0 (  21  21)->(  22  22   )
   7      6.496  52392.  2  1  0.0000 0.010230 1  1 (  21    )->(  24       )
   8      6.831  55099.  2  1  0.0000 0.000000 1  1 (  21    )->(  25       )
   9      6.984  56329.  2  1  0.0000 0.000000 1  1 (  21    )->(  27       )
  10      7.445  60044.  2  1  0.0000 0.000950 1  1 (  21    )->(  28       )
  11      7.762  62609.  2  1  0.0000 0.000138 1  1 (  18    )->(  22       )
  12      7.777  62730.  2  1  0.0000 0.507711 1  1 (  20    )->(  23       )
  13      7.781  62759.  2  1  0.0000 0.010246 1  1 (  19    )->(  22       )
  14      7.895  63679.  2  1  0.0000 0.000000 1  1 (  21    )->(  29       )
  15      8.200  66141.  2  1  0.0000 0.000087 1  1 (  15    )->(  22       )
  16      8.260  66622.  2  1  0.0000 0.111350 1  1 (  21    )->(  30       )
  17      8.525  68756.  2  1  0.0000 0.000000 1  1 (  20    )->(  26       )
  18      8.559  69036.  2  1  0.0000 0.000000 1  1 (  20    )->(  24       )
  19      8.600  69363.  2  1  0.0000 0.000000 1  1 (  16    )->(  22       )
  20      8.759  70649.  2  1  0.0000 0.000000 1  1 (  21    )->(  31       )
  21      8.793  70919.  2  1  0.0000 0.000000 1  1 (  17    )->(  22       )
  22      8.874  71570.  2  1  0.0000 0.002735 1  1 (  20    )->(  25       )
  23      9.117  73532.  2  1  0.0000 0.000026 1  1 (  20    )->(  27       )
  24      9.216  74336.  2  1  0.0000 0.002954 1  1 (  21    )->(  32       )
  25      9.275  74808.  2  1  0.0000 0.000000 1  1 (  21    )->(  33       )
  26      9.285  74888.  2  1  0.0000 0.000000 2  1 (  21  21)->(  22  23   )
  27      9.313  75116.  2  1  0.0000 0.000000 1  1 (  19    )->(  23       )
  28      9.338  75320.  2  1  0.0000 0.000000 2  1 (  21  21)->(  22  26   )
  29      9.451  76227.  2  1  0.0000 0.000397 1  1 (  14    )->(  22       )
  30      9.506  76674.  2  1  0.0000 0.000000 1  1 (  18    )->(  23       )
  31      9.631  77676.  2  1  0.0000 0.000000 1  1 (  20    )->(  28       )
  32      9.831  79289.  2  1  0.0000 0.000000 2  1 (  20  21)->(  22  22   )
  33      9.895  79805.  2  1  0.0000 0.000000 2  1 (  21  21)->(  22  24   )
  34     10.059  81133.  2  1  0.0000 0.009881 1  1 (  20    )->(  29       )
  35     10.086  81347.  2  1  0.0000 0.000000 1  1 (  13    )->(  22       )
  36     10.119  81614.  2  1  0.0000 0.000000 2  1 (  21  21)->(  22  27   )
  37     10.151  81877.  2  1  0.0000 0.000000 2  1 (  21  21)->(  22  25   )
  38     10.192  82208.  2  1  0.0000 0.000000 1  1 (  15    )->(  23       )
  39     10.197  82248.  2  1  0.0000 0.000029 1  1 (  16    )->(  23       )
  40     10.302  83089.  2  1  0.0000 0.002202 1  1 (  17    )->(  23       )
  41     10.344  83434.  2  1  0.0000 0.000000 1  1 (  19    )->(  26       )
  42     10.363  83583.  2  1  0.0000 0.269692 1  1 (  19    )->(  24       )
  43     10.400  83886.  2  1  0.0000 0.000000 1  1 (  20    )->(  30       )
  44     10.567  85229.  6  1  0.0000 0.000000 2  1 (  20  21)->(  22  23   )
  45     10.574  85287.  2  1  0.0000 0.002247 1  1 (  18    )->(  24       )
  46     10.579  85329.  2  1  0.0000 0.000000 2  1 (  21  21)->(  22  28   )
  47     10.660  85978.  2  1  0.0000 0.000000 1  1 (  19    )->(  25       )
  48     10.859  87581.  2  1  0.0000 0.000000 1  1 (  18    )->(  25       )
  49     10.872  87689.  2  1  0.0000 0.104210 1  1 (  20    )->(  31       )
  50     10.889  87828.  2  1  0.0000 0.000000 2  1 (  18  21)->(  22  22   )
  51     10.910  87999.  2  1  0.0000 0.000000 1  1 (  14    )->(  23       )
  52     10.919  88067.  2  1  0.0000 0.000000 1  1 (  19    )->(  27       )
  53     11.024  88914.  2  1  0.0000 0.000000 2  1 (  21  21)->(  22  29   )
  54     11.136  89820.  2  1  0.0000 0.000000 1  1 (  15    )->(  25       )
  55     11.167  90071.  2  1  0.0000 0.000000 1  1 (  16    )->(  24       )
  56     11.177  90152.  2  1  0.0000 0.000000 2  1 (  19  21)->(  22  22   )
  57     11.206  90383.  2  1  0.0000 0.000000 1  1 (  17    )->(  26       )
  58     11.234  90611.  2  1  0.0000 0.000133 1  1 (  21    )->(  36       )
  59     11.238  90641.  2  1  0.0000 0.000000 1  1 (  12    )->(  22       )
  60     11.300  91141.  2  1  0.0000 0.000734 1  1 (  15    )->(  24       )
  61     11.315  91260.  2  1  0.0000 0.000070 1  1 (  21    )->(  34       )
  62     11.324  91334.  2  1  0.0000 0.000000 2  1 (  15  21)->(  22  22   )
  63     11.339  91455.  2  1  0.0000 0.000000 1  1 (  17    )->(  24       )
  64     11.364  91658.  2  1  0.0000 0.000000 1  1 (  21    )->(  35       )
  65     11.391  91874.  2  1  0.0000 0.000000 2  1 (  21  21)->(  22  30   )
  66     11.414  92060.  2  1  0.0000 0.000000 1  1 (  20    )->(  32       )
  67     11.484  92622.  2  1  0.0000 0.002942 1  1 (  19    )->(  28       )
  68     11.679  94197.  2  1  0.0000 0.235593 1  1 (  17    )->(  25       )
  69     11.710  94450.  2  1  0.0000 0.183699 1  1 (  18    )->(  26       )
  70     11.725  94572.  2  1  0.0000 0.001651 1  1 (  20    )->(  33       )
  71     11.731  94620.  2  1  0.0000 0.000000 2  1 (  16  21)->(  22  22   )
  72     11.760  94849.  2  1  0.0000 0.000000 1  1 (  21    )->(  37       )
  73     11.774  94967.  2  1  0.0000 0.001357 1  1 (  13    )->(  23       )
  74     11.782  95028.  6  1  0.0000 0.000000 2  1 (  20  21)->(  22  24   )
  75     11.850  95574.  2  1  0.0000 0.001964 1  1 (  16    )->(  25       )
  76     11.897  95956.  2  1  0.0000 0.000000 2  1 (  21  21)->(  22  31   )
  77     11.903  96000.  2  1  0.0000 0.000000 1  1 (  19    )->(  29       )
  78     11.920  96144.  2  1  0.0000 0.006626 1  1 (  21    )->(  38       )
  79     12.037  97089.  6  1  0.0000 0.000000 2  1 (  20  21)->(  22  26   )
  80     12.081  97441.  2  1  0.0000 0.000000 2  1 (  17  21)->(  22  22   )
  81     12.085  97472.  2  1  0.0000 0.005272 1  1 (  14    )->(  24       )
  82     12.106  97641.  2  1  0.0000 0.091151 1  1 (  15    )->(  26       )
  83     12.180  98236.  2  1  0.0000 0.000743 1  1 (  17    )->(  27       )
  84     12.244  98756.  2  1  0.0000 0.004159 1  1 (  19    )->(  30       )
  85     12.355  99653.  2  1  0.0000 0.000000 2  1 (  21  21)->(  22  32   )
  86     12.374  99801.  6  1  0.0000 0.000000 2  1 (  20  21)->(  22  25   )
  87     12.420 100175.  2  1  0.0000 0.000000 2  1 (  21  21)->(  22  33   )
  88     12.437 100308.  2  1  0.0000 0.000000 1  1 (  16    )->(  26       )
  89     12.497 100799.  2  1  0.0000 0.000000 1  1 (  18    )->(  27       )
  90     12.528 101043.  6  2  0.0000 0.000000 2  1 (  20  21)->(  22  23   )
  91     12.534 101095.  6  1  0.0000 0.000000 2  1 (  19  21)->(  22  23   )
  92     12.564 101333.  6  1  0.0000 0.000000 2  1 (  20  21)->(  22  27   )
  93     12.576 101434.  2  1  0.0000 0.000000 1  1 (  21    )->(  39       )
  94     12.583 101486.  2  1  0.0000 0.000000 2  1 (  14  21)->(  22  22   )
  95     12.590 101546.  2  1  0.0000 0.000000 1  1 (  17    )->(  28       )
  96     12.679 102267.  2  1  0.0000 0.000000 1  1 (  14    )->(  25       )
  97     12.711 102524.  2  1  0.0000 0.010100 1  1 (  12    )->(  23       )
  98     12.725 102632.  2  1  0.0000 0.000000 1  1 (  19    )->(  31       )
  99     12.791 103165.  2  1  0.0000 0.020661 1  1 (  11    )->(  22       )
 100     12.878 103872.  2  1  0.0000 0.000000 1  1 (  13    )->(  24       )
 101     12.944 104399.  2  1  0.0000 0.007372 1  1 (  18    )->(  28       )
 102     12.966 104579.  6  1  0.0000 0.000000 2  1 (  18  21)->(  22  23   )
 103     12.997 104829.  2  1  0.0000 0.000000 1  1 (  15    )->(  27       )
 104     13.027 105067.  6  2  0.0000 0.000000 2  1 (  20  21)->(  22  26   )
 105     13.033 105119.  6  1  0.0000 0.000000 2  1 (  20  21)->(  22  28   )
 106     13.073 105438.  2  1  0.0000 0.000590 1  1 (  17    )->(  29       )
 107     13.134 105936.  2  1  0.0000 0.000000 1  1 (  20    )->(  34       )
 108     13.140 105980.  2  1  0.0000 0.140540 1  1 (  16    )->(  27       )
 109     13.143 106003.  2  1  0.0000 0.092995 1  1 (  19    )->(  32       )
 110     13.154 106094.  2  1  0.0000 0.000341 1  1 (  20    )->(  35       )
 111     13.219 106615.  2  1  0.0000 0.015237 1  1 (  14    )->(  26       )
 112     13.223 106649.  2  1  0.0000 0.000000 2  1 (  13  21)->(  22  22   )
 113     13.237 106767.  6  2  0.0000 0.000000 2  1 (  20  21)->(  22  24   )
 114     13.321 107442.  2  1  0.0000 0.000000 1  1 (  18    )->(  29       )
 115     13.389 107992.  2  1  0.0000 0.012679 1  1 (  13    )->(  25       )
 116     13.442 108418.  2  1  0.0000 0.034040 1  1 (  15    )->(  28       )
 117     13.458 108544.  2  1  0.0000 0.000000 1  1 (  17    )->(  30       )
 118     13.549 109278.  2  1  0.0000 0.000000 1  1 (  16    )->(  28       )
 119     13.551 109300.  6  2  0.0000 0.000000 2  1 (  20  21)->(  22  27   )
 120     13.561 109377.  6  1  0.0000 0.000000 2  1 (  20  21)->(  22  29   )
 121     13.561 109381.  2  1  0.0000 0.000000 1  1 (  19    )->(  33       )
 122     13.616 109823.  6  1  0.0000 0.000000 2  1 (  18  21)->(  22  26   )
 123     13.641 110021.  6  1  0.0000 0.000000 2  1 (  19  21)->(  22  24   )
 124     13.659 110167.  2  1  0.0000 0.000000 1  1 (  20    )->(  36       )
 125     13.661 110188.  6  1  0.0000 0.000000 2  1 (  16  21)->(  22  23   )
 126     13.667 110235.  6  1  0.0000 0.000000 2  1 (  15  21)->(  22  23   )
 127     13.668 110242.  2  1  0.0000 0.011994 1  1 (  21    )->(  40       )
 128     13.763 111003.  2  1  0.0000 0.000000 1  1 (  12    )->(  24       )
 129     13.763 111008.  2  1  0.0000 0.003607 1  1 (  18    )->(  30       )
 130     13.792 111243.  6  1  0.0000 0.000000 2  1 (  17  21)->(  22  23   )
 131     13.815 111429.  6  2  0.0000 0.000000 2  1 (  20  21)->(  22  25   )
 132     13.874 111898.  6  1  0.0000 0.000000 2  1 (  20  21)->(  22  30   )
 133     13.879 111942.  2  1  0.0000 0.000000 1  1 (  14    )->(  27       )
 134     13.920 112270.  2  1  0.0000 0.001694 1  1 (  17    )->(  31       )
 135     13.928 112335.  2  1  0.0000 0.000000 1  1 (  15    )->(  29       )
 136     13.931 112358.  6  1  0.0000 0.000000 2  1 (  15  21)->(  22  26   )
 137     13.936 112403.  6  2  0.0000 0.000000 2  1 (  18  21)->(  22  23   )
 138     13.954 112551.  6  1  0.0000 0.000000 2  1 (  19  21)->(  22  26   )
 139     13.973 112703.  2  1  0.0000 0.000000 1  1 (  13    )->(  26       )
 140     13.977 112736.  6  2  0.0000 0.000000 2  1 (  19  21)->(  22  23   )
 141     13.988 112818.  2  1  0.0000 0.002086 1  1 (  16    )->(  29       )
 142     14.029 113152.  6  2  0.0000 0.000000 2  1 (  20  21)->(  22  28   )
 143     14.046 113291.  2  1  0.0000 0.001379 1  1 (  20    )->(  37       )
 144     14.101 113732.  6  1  0.0000 0.000000 2  1 (  18  21)->(  22  24   )
 145     14.158 114193.  2  1  0.0000 0.076951 1  1 (  17    )->(  33       )
 146     14.169 114284.  2  1  0.0000 0.000000 1  1 (  18    )->(  31       )
 147     14.185 114407.  2  1  0.0000 0.002017 1  1 (  10    )->(  22       )
 148     14.223 114714.  2  1  0.0000 0.000000 1  1 (  20    )->(  38       )
 149     14.257 114988.  2  1  0.0000 0.004493 1  1 (  15    )->(  30       )
 150     14.290 115256.  6  1  0.0000 0.000000 2  1 (  20  21)->(  22  31   )
 151     14.344 115689.  2  1  0.0000 0.000000 1  1 (  17    )->(  32       )
 152     14.351 115750.  6  1  0.0000 0.000000 2  1 (  19  21)->(  22  27   )
 153     14.352 115753.  6  1  0.0000 0.000000 2  1 (  14  21)->(  22  23   )
 154     14.354 115776.  2  1  0.0000 0.000000 1  1 (  16    )->(  30       )
 155     14.368 115887.  6  1  0.0000 0.000000 2  1 (  18  21)->(  22  27   )
 156     14.372 115918.  2  1  0.0000 0.000000 2  1 (  12  21)->(  22  22   )
 157     14.378 115964.  2  1  0.0000 0.000000 2  1 (  21  21)->(  22  36   )
 158     14.411 116235.  6  1  0.0000 0.000000 2  1 (  19  21)->(  22  25   )
 159     14.417 116285.  2  1  0.0000 0.000000 1  1 (  11    )->(  23       )
 160     14.430 116383.  2  1  0.0000 0.000000 2  1 (  21  21)->(  22  34   )
 161     14.478 116773.  2  1  0.0000 0.000000 2  1 (  21  21)->(  22  35   )
 162     14.481 116798.  2  1  0.0000 0.160961 1  1 (  14    )->(  28       )
 163     14.514 117064.  6  1  0.0000 0.000000 2  1 (  18  21)->(  22  25   )
 164     14.520 117115.  6  1  0.0000 0.000000 2  1 (  16  21)->(  22  26   )
 165     14.544 117307.  6  2  0.0000 0.000000 2  1 (  20  21)->(  22  29   )
 166     14.555 117391.  2  1  0.0000 0.009554 1  1 (  12    )->(  25       )
 167     14.576 117568.  6  2  0.0000 0.000000 2  1 (  19  21)->(  22  26   )
 168     14.618 117902.  2  1  0.0000 0.005748 1  1 (  18    )->(  32       )
 169     14.632 118016.  6  2  0.0000 0.000000 2  1 (  16  21)->(  22  23   )
 170     14.637 118052.  6  2  0.0000 0.000000 2  1 (  15  21)->(  22  23   )
 171     14.644 118116.  2  1  0.0000 0.023265 1  1 (  13    )->(  27       )
 172     14.648 118145.  6  2  0.0000 0.000000 2  1 (  19  21)->(  22  24   )
 173     14.679 118395.  6  1  0.0000 0.000000 2  1 (  16  21)->(  22  24   )
 174     14.700 118563.  2  1  0.0000 0.000000 1  1 (  18    )->(  33       )
 175     14.758 119034.  2  1  0.0000 0.000000 1  1 (  15    )->(  31       )
 176     14.783 119230.  6  2  0.0000 0.000000 2  1 (  18  21)->(  22  24   )
 177     14.791 119295.  6  1  0.0000 0.000000 2  1 (  15  21)->(  22  25   )
 178     14.809 119440.  6  1  0.0000 0.000000 2  1 (  17  21)->(  22  26   )
 179     14.819 119525.  2  1  0.0000 0.000000 1  1 (  14    )->(  29       )
 180     14.822 119550.  6  1  0.0000 0.000000 2  1 (  18  21)->(  22  28   )
 181     14.857 119832.  6  2  0.0000 0.000000 2  1 (  20  21)->(  22  30   )
 182     14.860 119857.  6  1  0.0000 0.000000 2  1 (  15  21)->(  22  24   )
 183     14.872 119951.  2  1  0.0000 0.011147 1  1 (  16    )->(  31       )
 184     14.888 120076.  6  1  0.0000 0.000000 2  1 (  16  21)->(  22  27   )
 185     14.889 120088.  6  1  0.0000 0.000000 2  1 (  20  21)->(  22  32   )
 186     14.894 120127.  2  1  0.0000 0.005233 1  1 (  20    )->(  39       )
 187     14.900 120180.  2  1  0.0000 0.000000 2  1 (  21  21)->(  22  37   )
 188     15.038 121292.  6  1  0.0000 0.000000 2  1 (  19  21)->(  22  28   )
 189     15.066 121513.  2  1  0.0000 0.000000 2  1 (  21  21)->(  22  38   )
 190     15.077 121607.  6  2  0.0000 0.000000 2  1 (  18  21)->(  22  25   )
 191     15.084 121663.  6  1  0.0000 0.000000 2  1 (  17  21)->(  22  24   )
 192     15.093 121736.  6  1  0.0000 0.000000 2  1 (  15  21)->(  22  27   )
 193     15.109 121866.  2  1  0.0000 0.000000 1  1 (  12    )->(  26       )
 194     15.118 121934.  6  2  0.0000 0.000000 2  1 (  19  21)->(  22  27   )
 195     15.121 121961.  2  1  0.0000 0.000000 1  1 (  13    )->(  28       )
 196     15.161 122280.  2  1  0.0000 0.000655 1  1 (  19    )->(  34       )
 197     15.191 122521.  2  1  0.0000 0.000000 1  1 (  19    )->(  35       )
 198     15.193 122542.  2  1  0.0000 0.033858 1  1 (  14    )->(  30       )
 199     15.196 122567.  6  2  0.0000 0.000000 2  1 (  17  21)->(  22  23   )
 200     15.199 122591.  6  2  0.0000 0.000000 2  1 (  19  21)->(  22  25   )
 201     15.215 122716.  2  1  0.0000 0.048659 1  1 (  15    )->(  32       )
 202     15.219 122750.  6  1  0.0000 0.000000 2  1 (  20  21)->(  22  33   )
 203     15.243 122940.  2  1  0.0000 0.000000 1  1 (  15    )->(  33       )
 204     15.256 123052.  6  1  0.0000 0.000000 2  1 (  13  21)->(  22  23   )
 205     15.283 123263.  6  1  0.0000 0.000000 2  1 (  17  21)->(  22  25   )
 206     15.284 123274.  6  2  0.0000 0.000000 2  1 (  20  21)->(  22  31   )
 207     15.293 123344.  2  1  0.0000 0.000000 1  1 (  21    )->(  41       )
 208     15.325 123608.  6  2  0.0000 0.000000 2  1 (  14  21)->(  22  23   )
 209     15.352 123820.  6  2  0.0000 0.000000 2  1 (  15  21)->(  22  25   )
 210     15.361 123897.  6  1  0.0000 0.000000 2  1 (  15  21)->(  22  28   )
 211     15.365 123925.  6  1  0.0000 0.000000 2  1 (  14  21)->(  22  26   )
 212     15.365 123929.  6  1  0.0000 0.000000 2  1 (  18  21)->(  22  29   )
 213     15.378 124029.  6  2  0.0000 0.000000 2  1 (  16  21)->(  22  24   )
 214     15.413 124311.  6  2  0.0000 0.000000 2  1 (  17  21)->(  22  26   )
 215     15.419 124362.  2  1  0.0000 0.000000 1  1 (   9    )->(  22       )
 216     15.468 124756.  2  1  0.0000 0.000000 1  1 (  16    )->(  32       )
 217     15.492 124948.  2  1  0.0000 0.000148 1  1 (  19    )->(  36       )
 218     15.511 125104.  6  2  0.0000 0.000000 2  1 (  15  21)->(  22  24   )
 219     15.515 125134.  6  1  0.0000 0.000000 2  1 (  19  21)->(  22  29   )
 220     15.531 125262.  6  1  0.0000 0.000000 2  1 (  16  21)->(  22  25   )
 221     15.542 125359.  2  1  0.0000 0.025978 1  1 (  11    )->(  24       )
 222     15.554 125449.  6  1  0.0000 0.000000 2  1 (  16  21)->(  22  28   )
 223     15.604 125854.  6  1  0.0000 0.000000 2  1 (  14  21)->(  22  24   )
 224     15.637 126119.  2  1  0.0000 0.128180 1  1 (  13    )->(  29       )
 225     15.650 126223.  2  1  0.0000 0.015775 1  1 (  12    )->(  27       )
 226     15.657 126284.  6  1  0.0000 0.000000 2  1 (  18  21)->(  22  30   )
 227     15.677 126447.  2  1  0.0000 0.000000 1  1 (  19    )->(  37       )
 228     15.699 126624.  6  2  0.0000 0.000000 2  1 (  19  21)->(  22  28   )
 229     15.717 126763.  2  1  0.0000 0.000000 2  1 (  21  21)->(  22  39   )
 230     15.746 126997.  2  1  0.0000 0.000000 1  1 (  20    )->(  40       )
 231     15.760 127110.  2  1  0.0000 0.036919 1  1 (  16    )->(  33       )
 232     15.790 127354.  2  1  0.0000 0.000000 1  1 (  14    )->(  31       )
 233     15.809 127512.  6  1  0.0000 0.000000 2  1 (  19  21)->(  22  30   )
 234     15.816 127569.  2  1  0.0000 0.000000 1  1 (  10    )->(  23       )
 235     15.823 127625.  6  1  0.0000 0.000000 2  1 (  14  21)->(  22  27   )
 236     15.853 127862.  6  2  0.0000 0.000000 2  1 (  17  21)->(  22  24   )
 237     15.875 128044.  6  2  0.0000 0.000000 2  1 (  20  21)->(  22  32   )
 238     15.880 128085.  6  1  0.0000 0.000000 2  1 (  17  21)->(  22  27   )
 239     15.902 128255.  6  1  0.0000 0.000000 2  1 (  15  21)->(  22  29   )
 240     15.927 128463.  2  1  0.0000 0.000000 2  1 (  11  21)->(  22  22   )
 241     15.946 128613.  6  2  0.0000 0.000000 2  1 (  17  21)->(  22  25   )
 242     15.969 128796.  6  2  0.0000 0.000000 2  1 (  18  21)->(  22  26   )
 243     15.985 128929.  2  1  0.0000 0.000000 1  1 (  13    )->(  30       )
 244     16.007 129108.  6  1  0.0000 0.000000 2  1 (  16  21)->(  22  29   )
 245     16.051 129464.  2  1  0.0000 0.000054 1  1 (  19    )->(  38       )
 246     16.072 129627.  6  1  0.0000 0.000000 2  1 (  18  21)->(  22  31   )
 247     16.075 129651.  6  2  0.0000 0.000000 2  1 (  16  21)->(  22  25   )
 248     16.093 129798.  2  1  0.0000 0.000000 1  1 (  11    )->(  25       )
 249     16.125 130053.  6  2  0.0000 0.000000 2  1 (  19  21)->(  22  29   )
 250     16.132 130111.  6  1  0.0000 0.000000 2  1 (  13  21)->(  22  26   )
 251     16.145 130221.  2  1  0.0000 0.000000 1  1 (  17    )->(  36       )
 252     16.158 130321.  6  1  0.0000 0.000000 2  1 (  12  21)->(  22  23   )
 253     16.205 130706.  6  2  0.0000 0.000000 2  1 (  20  21)->(  22  33   )
 254     16.222 130843.  6  1  0.0000 0.000000 2  1 (  19  21)->(  22  31   )
 255     16.226 130875.  2  1  0.0000 0.000000 1  1 (  12    )->(  28       )
 256     16.227 130879.  6  2  0.0000 0.000000 2  1 (  13  21)->(  22  23   )
 257     16.235 130948.  6  1  0.0000 0.000000 2  1 (  14  21)->(  22  28   )
 258     16.261 131155.  6  1  0.0000 0.000000 2  1 (  17  21)->(  22  28   )
 259     16.274 131261.  2  1  0.0000 0.079622 1  1 (  14    )->(  32       )
 260     16.284 131342.  6  1  0.0000 0.000000 2  1 (  15  21)->(  22  30   )
 261     16.284 131342.  6  1  0.0000 0.000000 2  1 (  16  21)->(  22  30   )
 262     16.296 131440.  6  2  0.0000 0.000000 2  1 (  14  21)->(  22  24   )
 263     16.355 131915.  6  1  0.0000 0.000000 2  1 (  14  21)->(  22  25   )
 264     16.361 131959.  6  2  0.0000 0.000000 2  1 (  15  21)->(  22  26   )
 265     16.387 132172.  6  2  0.0000 0.000000 2  1 (  17  21)->(  22  27   )
 266     16.429 132506.  2  1  0.0000 0.134897 1  1 (  13    )->(  31       )
 267     16.436 132562.  6  1  0.0000 0.000000 2  1 (  13  21)->(  22  24   )
 268     16.459 132749.  6  2  0.0000 0.000000 2  1 (  19  21)->(  22  30   )
 269     16.559 133557.  6  1  0.0000 0.000000 2  1 (  18  21)->(  22  32   )
 270     16.560 133563.  2  1  0.0000 0.000000 1  1 (  14    )->(  33       )
 271     16.569 133635.  6  1  0.0000 0.000000 2  1 (  20  21)->(  22  34   )
 272     16.586 133773.  6  1  0.0000 0.000000 2  1 (  20  21)->(  22  35   )
 273     16.621 134056.  2  1  0.0000 0.000120 1  1 (  11    )->(  26       )
 274     16.632 134144.  6  1  0.0000 0.000000 2  1 (  13  21)->(  22  27   )
 275     16.644 134244.  6  1  0.0000 0.000000 2  1 (  19  21)->(  22  32   )
 276     16.665 134415.  6  1  0.0000 0.000000 2  1 (  18  21)->(  22  33   )
 277     16.668 134439.  2  1  0.0000 0.000488 1  1 (  21    )->(  42       )
 278     16.672 134468.  6  1  0.0000 0.000000 2  1 (  15  21)->(  22  31   )
 279     16.678 134520.  6  1  0.0000 0.000000 2  1 (  16  21)->(  22  31   )
 280     16.699 134685.  2  1  0.0000 0.000000 1  1 (  19    )->(  39       )
 281     16.699 134689.  6  2  0.0000 0.000000 2  1 (  16  21)->(  22  26   )
 282     16.705 134733.  2  1  0.0000 0.124548 1  1 (  12    )->(  29       )
 283     16.749 135090.  6  2  0.0000 0.000000 2  1 (  18  21)->(  22  27   )
 284     16.755 135136.  6  1  0.0000 0.000000 2  1 (  15  21)->(  22  33   )
 285     16.795 135461.  6  2  0.0000 0.000000 2  1 (  17  21)->(  22  28   )
 286     16.803 135525.  2  1  0.0000 0.000000 2  1 (  21  21)->(  22  40   )
 287     16.819 135657.  6  1  0.0000 0.000000 2  1 (  17  21)->(  22  29   )
 288     16.838 135809.  2  1  0.0000 0.000000 1  1 (  17    )->(  38       )
 289     16.840 135822.  2  1  0.0000 0.000022 1  1 (  17    )->(  37       )
 290     16.855 135949.  2  1  0.0000 0.375164 1  1 (  18    )->(  36       )
 291     16.873 136091.  6  1  0.0000 0.000000 2  1 (  14  21)->(  22  29   )
 292     16.904 136342.  6  2  0.0000 0.000000 2  1 (  14  21)->(  22  25   )
 293     16.926 136517.  2  1  0.0000 0.269117 1  1 (  18    )->(  34       )
 294     16.934 136580.  6  2  0.0000 0.000000 2  1 (  19  21)->(  22  31   )
 295     16.945 136669.  2  1  0.0000 0.000000 1  1 (  17    )->(  34       )
 296     16.992 137054.  2  1  0.0000 0.000000 1  1 (  18    )->(  35       )
 297     16.998 137100.  2  1  0.0000 0.043184 1  1 (  10    )->(  24       )
 298     17.005 137154.  2  1  0.0000 0.007094 1  1 (   9    )->(  23       )
 299     17.016 137245.  2  1  0.0000 0.000000 1  1 (  13    )->(  32       )
 300     17.021 137287.  2  1  0.0000 0.000347 1  1 (  17    )->(  35       )
 301     17.059 137592.  2  1  0.0000 0.000000 1  1 (  12    )->(  30       )
 302     17.071 137687.  6  1  0.0000 0.000000 2  1 (  16  21)->(  22  32   )
 303     17.088 137821.  6  1  0.0000 0.000000 2  1 (  13  21)->(  22  25   )
 304     17.100 137919.  6  2  0.0000 0.000000 2  1 (  13  21)->(  22  24   )
 305     17.131 138168.  6  1  0.0000 0.000000 2  1 (  14  21)->(  22  30   )
 306     17.131 138171.  6  2  0.0000 0.000000 2  1 (  12  21)->(  22  23   )
 307     17.138 138227.  6  1  0.0000 0.000000 2  1 (  13  21)->(  22  28   )
 308     17.143 138268.  6  1  0.0000 0.000000 2  1 (  20  21)->(  22  36   )
 309     17.147 138298.  6  1  0.0000 0.000000 2  1 (  15  21)->(  22  32   )
 310     17.153 138351.  6  1  0.0000 0.000000 2  1 (  19  21)->(  22  33   )
 311     17.174 138515.  6  1  0.0000 0.000000 2  1 (  17  21)->(  22  30   )
 312     17.196 138693.  6  2  0.0000 0.000000 2  1 (  18  21)->(  22  28   )
 313     17.224 138918.  2  1  0.0000 0.000000 1  1 (  11    )->(  27       )
 314     17.245 139091.  6  2  0.0000 0.000000 2  1 (  15  21)->(  22  27   )
 315     17.249 139126.  6  1  0.0000 0.000000 2  1 (  12  21)->(  22  26   )
 316     17.279 139368.  6  1  0.0000 0.000000 2  1 (  12  21)->(  22  24   )
 317     17.281 139383.  6  2  0.0000 0.000000 2  1 (  17  21)->(  22  29   )
 318     17.292 139467.  2  1  0.0000 0.009354 1  1 (  13    )->(  33       )
 319     17.309 139611.  2  1  0.0000 0.487254 1  1 (  15    )->(  36       )
 320     17.318 139682.  2  1  0.0000 0.000000 2  1 (  10  21)->(  22  22   )
 321     17.353 139966.  6  2  0.0000 0.000000 2  1 (  19  21)->(  22  32   )
 322     17.391 140266.  2  1  0.0000 0.014137 1  1 (  20    )->(  41       )
 323     17.396 140305.  6  2  0.0000 0.000000 2  1 (  16  21)->(  22  27   )
 324     17.402 140360.  6  1  0.0000 0.000000 2  1 (  14  21)->(  22  31   )
 325     17.413 140449.  2  1  0.0000 0.000000 1  1 (  10    )->(  25       )
 326     17.459 140816.  2  1  0.0000 0.000000 1  1 (  16    )->(  34       )
 327     17.466 140874.  2  1  0.0000 0.000000 1  1 (  18    )->(  37       )
 328     17.482 140998.  6  2  0.0000 0.000000 2  1 (  14  21)->(  22  26   )
 329     17.490 141065.  2  1  0.0000 0.208696 1  1 (  16    )->(  35       )
 330     17.495 141104.  6  1  0.0000 0.000000 2  1 (  13  21)->(  22  29   )
 331     17.527 141366.  6  1  0.0000 0.000000 2  1 (  20  21)->(  22  37   )
 332     17.554 141579.  6  2  0.0000 0.000000 2  1 (  20  21)->(  22  34   )
 333     17.554 141580.  2  1  0.0000 0.040599 1  1 (  12    )->(  31       )
 334     17.567 141688.  6  1  0.0000 0.000000 2  1 (  17  21)->(  22  31   )
 335     17.570 141708.  6  2  0.0000 0.000000 2  1 (  18  21)->(  22  29   )
 336     17.571 141718.  6  2  0.0000 0.000000 2  1 (  20  21)->(  22  35   )
 337     17.583 141817.  6  1  0.0000 0.000000 2  1 (  12  21)->(  22  27   )
 338     17.597 141933.  2  1  0.0000 0.000105 1  1 (  17    )->(  39       )
 339     17.599 141944.  6  1  0.0000 0.000000 2  1 (  16  21)->(  22  33   )
 340     17.606 142006.  2  1  0.0000 0.009079 1  1 (  19    )->(  40       )
 341     17.620 142119.  6  2  0.0000 0.000000 2  1 (  13  21)->(  22  25   )
 342     17.664 142471.  6  2  0.0000 0.000000 2  1 (  17  21)->(  22  30   )
 343     17.689 142670.  6  1  0.0000 0.000000 2  1 (  20  21)->(  22  38   )
 344     17.690 142683.  6  2  0.0000 0.000000 2  1 (  15  21)->(  22  28   )
 345     17.718 142903.  2  1  0.0000 0.139958 1  1 (  15    )->(  34       )
 346     17.762 143264.  2  1  0.0000 0.010486 1  1 (  15    )->(  38       )
 347     17.779 143396.  2  1  0.0000 0.000000 1  1 (  15    )->(  35       )
 348     17.786 143451.  2  1  0.0000 0.000000 1  1 (  16    )->(  36       )
 349     17.787 143459.  2  1  0.0000 0.001754 1  1 (  11    )->(  28       )
 350     17.792 143499.  6  2  0.0000 0.000000 2  1 (  19  21)->(  22  33   )
 351     17.798 143549.  2  1  0.0000 0.010229 1  1 (  18    )->(  38       )
 352     17.802 143582.  6  1  0.0000 0.000000 2  1 (  17  21)->(  22  33   )
 353     17.805 143606.  6  2  0.0000 0.000000 2  1 (  16  21)->(  22  28   )
 354     17.835 143848.  6  1  0.0000 0.000000 2  1 (  13  21)->(  22  30   )
 355     17.847 143944.  2  1  0.0000 0.000000 1  1 (  15    )->(  37       )
 356     17.905 144417.  6  1  0.0000 0.000000 2  1 (  11  21)->(  22  23   )
 357     17.976 144984.  6  2  0.0000 0.000000 2  1 (  12  21)->(  22  24   )
 358     17.992 145116.  2  1  0.0000 0.000000 1  1 (  12    )->(  32       )
 359     18.010 145259.  2  1  0.0000 0.000000 1  1 (  18    )->(  39       )
 360     18.010 145261.  6  1  0.0000 0.000000 2  1 (  17  21)->(  22  32   )
 361     18.012 145281.  6  2  0.0000 0.000000 2  1 (  18  21)->(  22  30   )
 362     18.059 145653.  6  1  0.0000 0.000000 2  1 (  14  21)->(  22  32   )
 363     18.077 145805.  2  1  0.0000 0.000000 1  1 (   8    )->(  22       )
 364     18.078 145812.  2  1  0.0000 0.001796 1  1 (  10    )->(  26       )
 365     18.116 146118.  2  1  0.0000 0.000000 1  1 (   9    )->(  24       )
 366     18.124 146184.  6  2  0.0000 0.000000 2  1 (  17  21)->(  22  31   )
 367     18.129 146221.  6  2  0.0000 0.000000 2  1 (  20  21)->(  22  36   )
 368     18.135 146270.  6  2  0.0000 0.000000 2  1 (  14  21)->(  22  27   )
 369     18.152 146406.  6  1  0.0000 0.000000 2  1 (  12  21)->(  22  28   )
 370     18.173 146573.  6  2  0.0000 0.000000 2  1 (  15  21)->(  22  29   )
 371     18.211 146881.  2  1  0.0000 0.138783 1  1 (  14    )->(  34       )
 372     18.234 147068.  6  1  0.0000 0.000000 2  1 (  12  21)->(  22  25   )
 373     18.236 147083.  2  1  0.0000 0.000000 1  1 (  14    )->(  35       )
 374     18.240 147118.  6  2  0.0000 0.000000 2  1 (  16  21)->(  22  29   )
 375     18.241 147123.  6  2  0.0000 0.000000 2  1 (  13  21)->(  22  26   )
 376     18.257 147254.  2  1  0.0000 0.000000 1  1 (  11    )->(  29       )
 377     18.271 147367.  2  1  0.0000 0.009641 1  1 (   7    )->(  22       )
 378     18.279 147426.  2  1  0.0000 0.361703 1  1 (  16    )->(  37       )
 379     18.368 148147.  6  1  0.0000 0.000000 2  1 (  20  21)->(  22  39   )
 380     18.370 148161.  6  2  0.0000 0.000000 2  1 (  17  21)->(  22  33   )
 381     18.406 148454.  6  1  0.0000 0.000000 2  1 (  14  21)->(  22  33   )
 382     18.410 148488.  2  1  0.0000 0.015365 1  1 (  12    )->(  33       )
 383     18.423 148590.  6  2  0.0000 0.000000 2  1 (  18  21)->(  22  31   )
 384     18.424 148602.  6  1  0.0000 0.000000 2  1 (  13  21)->(  22  31   )
 385     18.428 148631.  2  1  0.0000 0.000000 1  1 (  16    )->(  38       )
 386     18.428 148632.  2  1  0.0000 0.000000 2  1 (  21  21)->(  22  41   )
 387     18.502 149232.  6  2  0.0000 0.000000 2  1 (  15  21)->(  22  30   )
 388     18.513 149319.  6  2  0.0000 0.000000 2  1 (  20  21)->(  22  37   )
 389     18.525 149412.  2  1  0.0000 0.066956 1  1 (  14    )->(  36       )
 390     18.549 149611.  2  1  0.0000 0.000000 2  1 (   9  21)->(  22  22   )
 391     18.551 149627.  6  2  0.0000 0.000000 2  1 (  17  21)->(  22  32   )
 392     18.603 150041.  6  1  0.0000 0.000000 2  1 (  18  21)->(  22  36   )
 393     18.608 150083.  6  2  0.0000 0.000000 2  1 (  16  21)->(  22  30   )
 394     18.611 150106.  2  1  0.0000 0.000204 1  1 (   9    )->(  25       )
 395     18.643 150364.  2  1  0.0000 0.239344 1  1 (  11    )->(  30       )
 396     18.654 150459.  6  1  0.0000 0.000000 2  1 (  12  21)->(  22  29   )
 397     18.676 150636.  6  2  0.0000 0.000000 2  1 (  20  21)->(  22  38   )
 398     18.698 150809.  6  1  0.0000 0.000000 2  1 (  19  21)->(  22  34   )
 399     18.726 151037.  6  1  0.0000 0.000000 2  1 (  19  21)->(  22  35   )
 400     18.738 151129.  6  2  0.0000 0.000000 2  1 (  14  21)->(  22  28   )
 401     18.743 151171.  2  1  0.0000 0.000000 1  1 (  10    )->(  27       )
 402     18.763 151337.  6  1  0.0000 0.000000 2  1 (  15  21)->(  22  36   )
 403     18.782 151485.  6  2  0.0000 0.000000 2  1 (  12  21)->(  22  25   )
 404     18.782 151489.  6  1  0.0000 0.000000 2  1 (  18  21)->(  22  34   )
 405     18.819 151785.  6  1  0.0000 0.000000 2  1 (  11  21)->(  22  26   )
 406     18.833 151898.  6  1  0.0000 0.000000 2  1 (  18  21)->(  22  35   )
 407     18.846 152003.  2  1  0.0000 0.000000 1  1 (  17    )->(  40       )
 408     18.862 152131.  2  1  0.0000 0.000000 1  1 (  14    )->(  37       )
 409     18.873 152221.  6  2  0.0000 0.000000 2  1 (  18  21)->(  22  32   )
 410     18.875 152241.  6  2  0.0000 0.000000 2  1 (  11  21)->(  22  23   )
 411     18.881 152288.  6  1  0.0000 0.000000 2  1 (  13  21)->(  22  32   )
 412     18.905 152480.  6  2  0.0000 0.000000 2  1 (  13  21)->(  22  27   )
 413     18.928 152663.  6  1  0.0000 0.000000 2  1 (  12  21)->(  22  30   )
 414     18.929 152674.  2  1  0.0000 0.014284 1  1 (  16    )->(  39       )
 415     18.961 152930.  6  2  0.0000 0.000000 2  1 (  18  21)->(  22  33   )
 416     18.976 153051.  2  1  0.0000 0.000000 1  1 (  13    )->(  34       )
 417     19.008 153311.  6  2  0.0000 0.000000 2  1 (  15  21)->(  22  31   )
 418     19.013 153348.  2  1  0.0000 0.185236 1  1 (  13    )->(  35       )
 419     19.024 153437.  2  1  0.0000 0.000000 1  1 (  15    )->(  39       )
 420     19.067 153785.  6  1  0.0000 0.000000 2  1 (  19  21)->(  22  36   )
 421     19.072 153828.  6  2  0.0000 0.000000 2  1 (  14  21)->(  22  29   )
 422     19.100 154056.  6  1  0.0000 0.000000 2  1 (  18  21)->(  22  37   )
 423     19.102 154064.  6  1  0.0000 0.000000 2  1 (  11  21)->(  22  24   )
 424     19.117 154186.  2  1  0.0000 0.000000 1  1 (  19    )->(  41       )
 425     19.118 154199.  2  1  0.0000 0.000000 1  1 (  20    )->(  42       )
 426     19.130 154291.  6  2  0.0000 0.000000 2  1 (  16  21)->(  22  31   )
 427     19.136 154346.  6  1  0.0000 0.000000 2  1 (  16  21)->(  22  34   )
 428     19.149 154444.  2  1  0.0000 0.000000 1  1 (  11    )->(  31       )
 429     19.158 154524.  2  1  0.0000 0.000000 1  1 (   9    )->(  26       )
 430     19.169 154608.  6  1  0.0000 0.000000 2  1 (  16  21)->(  22  35   )
 431     19.174 154652.  6  1  0.0000 0.000000 2  1 (  13  21)->(  22  33   )
 432     19.198 154845.  6  1  0.0000 0.000000 2  1 (  19  21)->(  22  37   )
 433     19.199 154848.  6  1  0.0000 0.000000 2  1 (  20  21)->(  22  40   )
 434     19.211 154946.  6  1  0.0000 0.000000 2  1 (  18  21)->(  22  38   )
 435     19.250 155262.  2  1  0.0000 0.000755 1  1 (  10    )->(  28       )
 436     19.267 155397.  6  1  0.0000 0.000000 2  1 (  10  21)->(  22  23   )
 437     19.279 155494.  2  1  0.0000 0.174998 1  1 (  14    )->(  38       )
 438     19.290 155583.  2  1  0.0000 0.000000 1  1 (  13    )->(  36       )
 439     19.310 155745.  2  1  0.0000 0.015859 1  1 (  18    )->(  40       )
 440     19.331 155914.  6  1  0.0000 0.000000 2  1 (  12  21)->(  22  31   )
 441     19.336 155956.  6  1  0.0000 0.000000 2  1 (  11  21)->(  22  27   )
 442     19.354 156101.  6  2  0.0000 0.000000 2  1 (  20  21)->(  22  39   )
 443     19.357 156128.  6  2  0.0000 0.000000 2  1 (  19  21)->(  22  34   )
 444     19.375 156267.  6  2  0.0000 0.000000 2  1 (  12  21)->(  22  26   )
 445     19.382 156329.  6  2  0.0000 0.000000 2  1 (  13  21)->(  22  28   )
 446     19.386 156360.  6  2  0.0000 0.000000 2  1 (  19  21)->(  22  35   )
 447     19.447 156851.  6  2  0.0000 0.000000 2  1 (  14  21)->(  22  30   )
 448     19.466 157006.  6  2  0.0000 0.000000 2  1 (  15  21)->(  22  32   )
 449     19.500 157278.  6  2  0.0000 0.000000 2  1 (  15  21)->(  22  33   )
 450     19.521 157449.  6  1  0.0000 0.000000 2  1 (  16  21)->(  22  36   )
 451     19.600 158083.  6  1  0.0000 0.000000 2  1 (  19  21)->(  22  38   )
 452     19.613 158193.  6  1  0.0000 0.000000 2  1 (  15  21)->(  22  38   )
 453     19.622 158264.  2  1  0.0000 0.070132 1  1 (  13    )->(  37       )
 454     19.664 158598.  6  1  0.0000 0.000000 2  1 (  16  21)->(  22  37   )
 455     19.672 158667.  6  1  0.0000 0.000000 2  1 (  15  21)->(  22  37   )
 456     19.717 159032.  2  1  0.0000 0.010876 1  1 (  11    )->(  32       )
 457     19.718 159033.  6  2  0.0000 0.000000 2  1 (  19  21)->(  22  36   )
 458     19.727 159110.  6  2  0.0000 0.000000 2  1 (  16  21)->(  22  32   )
 459     19.749 159285.  2  1  0.0000 0.000000 1  1 (  10    )->(  29       )
 460     19.760 159375.  2  1  0.0000 0.278123 1  1 (   8    )->(  23       )
 461     19.764 159406.  6  2  0.0000 0.000000 2  1 (  11  21)->(  22  24   )
 462     19.764 159409.  2  1  0.0000 0.000000 1  1 (  12    )->(  34       )
 463     19.775 159499.  6  1  0.0000 0.000000 2  1 (  11  21)->(  22  28   )
 464     19.778 159520.  2  1  0.0000 0.137276 1  1 (  12    )->(  35       )
 465     19.786 159586.  6  1  0.0000 0.000000 2  1 (  15  21)->(  22  34   )
 466     19.788 159600.  6  1  0.0000 0.000000 2  1 (  11  21)->(  22  25   )
 467     19.791 159628.  2  1  0.0000 0.000000 1  1 (  13    )->(  38       )
 468     19.804 159733.  6  1  0.0000 0.000000 2  1 (  17  21)->(  22  36   )
 469     19.812 159796.  2  1  0.0000 0.000000 2  1 (  21  21)->(  22  42   )
 470     19.820 159859.  2  1  0.0000 0.000000 1  1 (  14    )->(  39       )
 471     19.835 159984.  6  1  0.0000 0.000000 2  1 (  14  21)->(  22  34   )
 472     19.843 160044.  2  1  0.0000 0.000000 1  1 (  16    )->(  40       )
 473     19.856 160150.  2  1  0.0000 0.000000 1  1 (   6    )->(  22       )
 474     19.858 160168.  6  1  0.0000 0.000000 2  1 (  14  21)->(  22  35   )
 475     19.863 160204.  2  1  0.0000 0.001335 1  1 (   9    )->(  27       )
 476     19.875 160302.  6  1  0.0000 0.000000 2  1 (  15  21)->(  22  35   )
 477     19.881 160354.  6  1  0.0000 0.000000 2  1 (  12  21)->(  22  32   )
 478     19.883 160370.  2  1  0.0000 0.027158 1  1 (  15    )->(  40       )
 479     19.892 160444.  6  2  0.0000 0.000000 2  1 (  19  21)->(  22  37   )
 480     19.894 160459.  6  2  0.0000 0.000000 2  1 (  13  21)->(  22  29   )
 481     19.900 160508.  2  1  0.0000 0.000000 1  1 (   7    )->(  23       )
 482     19.908 160568.  6  2  0.0000 0.000000 2  1 (  12  21)->(  22  27   )
 483     19.995 161267.  2  1  0.0000 0.000000 1  1 (  11    )->(  33       )
 484     20.023 161498.  6  1  0.0000 0.000000 2  1 (  18  21)->(  22  39   )
 485     20.025 161511.  6  2  0.0000 0.000000 2  1 (  16  21)->(  22  33   )
 486     20.048 161697.  6  2  0.0000 0.000000 2  1 (  14  21)->(  22  31   )
 487     20.123 162305.  6  1  0.0000 0.000000 2  1 (  16  21)->(  22  38   )
 488     20.127 162337.  2  1  0.0000 0.049826 1  1 (  10    )->(  30       )
 489     20.181 162774.  6  1  0.0000 0.000000 2  1 (  11  21)->(  22  29   )
 490     20.185 162806.  6  2  0.0000 0.000000 2  1 (  20  21)->(  22  40   )
 491     20.196 162890.  6  1  0.0000 0.000000 2  1 (  10  21)->(  22  26   )
 492     20.240 163244.  6  2  0.0000 0.000000 2  1 (  10  21)->(  22  23   )
 493     20.243 163275.  6  2  0.0000 0.000000 2  1 (  13  21)->(  22  30   )
 494     20.253 163356.  6  1  0.0000 0.000000 2  1 (  19  21)->(  22  39   )
 495     20.274 163525.  6  2  0.0000 0.000000 2  1 (  19  21)->(  22  38   )
 496     20.314 163844.  2  1  0.0000 0.000000 1  1 (  12    )->(  36       )
 497     20.323 163920.  6  2  0.0000 0.000000 2  1 (  11  21)->(  22  25   )
 498     20.348 164117.  6  1  0.0000 0.000000 2  1 (  15  21)->(  22  39   )
 499     20.353 164157.  6  1  0.0000 0.000000 2  1 (  12  21)->(  22  33   )
 500     20.357 164188.  6  2  0.0000 0.000000 2  1 (  17  21)->(  22  36   )
 501     20.364 164249.  6  1  0.0000 0.000000 2  1 (  14  21)->(  22  36   )
 502     20.447 164918.  2  1  0.0000 0.000000 1  1 (   9    )->(  28       )
 503     20.457 164999.  6  1  0.0000 0.000000 2  1 (   9  21)->(  22  23   )
 504     20.485 165224.  6  2  0.0000 0.000000 2  1 (  12  21)->(  22  28   )
 505     20.486 165229.  6  1  0.0000 0.000000 2  1 (  17  21)->(  22  38   )
 506     20.494 165299.  2  1  0.0000 0.006132 1  1 (  17    )->(  41       )
 507     20.506 165396.  6  1  0.0000 0.000000 2  1 (  13  21)->(  22  34   )
 508     20.511 165430.  6  1  0.0000 0.000000 2  1 (  17  21)->(  22  37   )
 509     20.525 165544.  6  1  0.0000 0.000000 2  1 (  11  21)->(  22  30   )
 510     20.527 165559.  6  1  0.0000 0.000000 2  1 (  10  21)->(  22  24   )
 511     20.530 165582.  6  1  0.0000 0.000000 2  1 (  13  21)->(  22  35   )
 512     20.534 165616.  6  2  0.0000 0.000000 2  1 (  14  21)->(  22  32   )
 513     20.582 166006.  2  1  0.0000 0.000000 1  1 (  10    )->(  31       )
 514     20.644 166504.  2  1  0.0000 0.080138 1  1 (  12    )->(  37       )
 515     20.655 166591.  6  1  0.0000 0.000000 2  1 (  17  21)->(  22  34   )
 516     20.668 166696.  2  1  0.0000 0.096183 1  1 (  13    )->(  39       )
 517     20.691 166885.  6  2  0.0000 0.000000 2  1 (  13  21)->(  22  31   )
 518     20.733 167221.  6  1  0.0000 0.000000 2  1 (  17  21)->(  22  35   )
 519     20.778 167587.  6  1  0.0000 0.000000 2  1 (  14  21)->(  22  37   )
 520     20.809 167836.  6  1  0.0000 0.000000 2  1 (  10  21)->(  22  27   )
 521     20.825 167966.  6  2  0.0000 0.000000 2  1 (  14  21)->(  22  33   )
 522     20.832 168025.  6  1  0.0000 0.000000 2  1 (  16  21)->(  22  39   )
 523     20.843 168110.  2  1  0.0000 0.005552 1  1 (   9    )->(  29       )
 524     20.846 168137.  6  1  0.0000 0.000000 2  1 (  20  21)->(  22  41   )
 525     20.851 168173.  2  1  0.0000 0.000000 1  1 (   8    )->(  24       )
 526     20.860 168249.  2  1  0.0000 0.267864 1  1 (  14    )->(  40       )
 527     20.879 168404.  2  1  0.0000 0.142313 1  1 (   7    )->(  24       )
 528     20.888 168472.  6  2  0.0000 0.000000 2  1 (  11  21)->(  22  26   )
 529     20.905 168607.  6  1  0.0000 0.000000 2  1 (  14  21)->(  22  38   )
 530     20.919 168722.  6  2  0.0000 0.000000 2  1 (  19  21)->(  22  39   )
 531     20.922 168751.  2  1  0.0000 0.006978 1  1 (  19    )->(  42       )
 532     20.960 169054.  6  2  0.0000 0.000000 2  1 (  12  21)->(  22  29   )
 533     20.977 169189.  2  1  0.0000 0.000000 1  1 (  12    )->(  38       )
 534     21.046 169745.  6  1  0.0000 0.000000 2  1 (  11  21)->(  22  31   )
 535     21.049 169776.  6  2  0.0000 0.000000 2  1 (  17  21)->(  22  37   )
 536     21.050 169780.  6  2  0.0000 0.000000 2  1 (  17  21)->(  22  38   )
 537     21.071 169949.  2  1  0.0000 0.000000 1  1 (  18    )->(  41       )
 538     21.081 170028.  6  1  0.0000 0.000000 2  1 (  18  21)->(  22  40   )
 539     21.097 170160.  2  1  0.0000 0.083638 1  1 (  10    )->(  32       )
 540     21.098 170169.  6  1  0.0000 0.000000 2  1 (  10  21)->(  22  25   )
 541     21.115 170306.  6  2  0.0000 0.000000 2  1 (  18  21)->(  22  36   )
 542     21.120 170348.  6  1  0.0000 0.000000 2  1 (  13  21)->(  22  36   )
 543     21.134 170460.  6  1  0.0000 0.000000 2  1 (  19  21)->(  22  40   )
 544     21.136 170476.  6  2  0.0000 0.000000 2  1 (  17  21)->(  22  34   )
 545     21.159 170663.  6  2  0.0000 0.000000 2  1 (  18  21)->(  22  34   )
 546     21.175 170791.  6  1  0.0000 0.000000 2  1 (  10  21)->(  22  28   )
 547     21.212 171085.  2  1  0.0000 0.000000 2  1 (   8  21)->(  22  22   )
 548     21.212 171088.  6  2  0.0000 0.000000 2  1 (  17  21)->(  22  35   )
 549     21.212 171091.  6  2  0.0000 0.000000 2  1 (  10  21)->(  22  24   )
 550     21.224 171181.  2  1  0.0000 0.000000 1  1 (  10    )->(  33       )
 551     21.225 171192.  6  2  0.0000 0.000000 2  1 (  18  21)->(  22  35   )
 552     21.261 171478.  6  1  0.0000 0.000000 2  1 (  17  21)->(  22  39   )
 553     21.269 171543.  2  1  0.0000 0.000000 1  1 (   9    )->(  30       )
 554     21.280 171637.  6  2  0.0000 0.000000 2  1 (  13  21)->(  22  32   )
 555     21.315 171919.  6  2  0.0000 0.000000 2  1 (  12  21)->(  22  30   )
 556     21.340 172118.  6  1  0.0000 0.000000 2  1 (   9  21)->(  22  26   )
 557     21.350 172198.  2  1  0.0000 0.000104 1  1 (   8    )->(  25       )
 558     21.370 172364.  2  1  0.0000 0.335767 1  1 (  16    )->(  41       )
 559     21.400 172605.  2  1  0.0000 0.000000 2  1 (   7  21)->(  22  22   )
 560     21.429 172836.  6  2  0.0000 0.000000 2  1 (   9  21)->(  22  23   )
 561     21.481 173258.  2  1  0.0000 0.000000 1  1 (   7    )->(  25       )
 562     21.484 173279.  6  2  0.0000 0.000000 2  1 (  11  21)->(  22  27   )
 563     21.507 173468.  2  1  0.0000 0.000000 1  1 (  13    )->(  40       )
 564     21.540 173733.  6  1  0.0000 0.000000 2  1 (  11  21)->(  22  32   )
 565     21.549 173805.  6  1  0.0000 0.000000 2  1 (  13  21)->(  22  37   )
 566     21.562 173907.  6  2  0.0000 0.000000 2  1 (  13  21)->(  22  33   )
 567     21.566 173939.  6  2  0.0000 0.000000 2  1 (  15  21)->(  22  36   )
 568     21.568 173954.  2  1  0.0000 0.000000 1  1 (  17    )->(  42       )
 569     21.593 174161.  2  1  0.0000 0.000000 1  1 (  15    )->(  41       )
 570     21.624 174411.  6  1  0.0000 0.000000 2  1 (  12  21)->(  22  34   )
 571     21.638 174520.  6  1  0.0000 0.000000 2  1 (   9  21)->(  22  24   )
 572     21.641 174544.  6  2  0.0000 0.000000 2  1 (  10  21)->(  22  25   )
 573     21.643 174563.  6  1  0.0000 0.000000 2  1 (  12  21)->(  22  35   )
 574     21.663 174728.  6  1  0.0000 0.000000 2  1 (  14  21)->(  22  39   )
 575     21.679 174856.  6  1  0.0000 0.000000 2  1 (  10  21)->(  22  29   )
 576     21.690 174940.  2  1  0.0000 0.136987 1  1 (  12    )->(  39       )
 577     21.697 174996.  6  2  0.0000 0.000000 2  1 (  16  21)->(  22  34   )
 578     21.702 175040.  2  1  0.0000 0.044949 1  1 (  11    )->(  34       )
 579     21.716 175149.  2  1  0.0000 0.003292 1  1 (   6    )->(  23       )
 580     21.723 175209.  6  2  0.0000 0.000000 2  1 (  18  21)->(  22  37   )
 581     21.727 175237.  6  2  0.0000 0.000000 2  1 (  16  21)->(  22  35   )
 582     21.738 175329.  6  1  0.0000 0.000000 2  1 (  15  21)->(  22  40   )
 583     21.741 175350.  2  1  0.0000 0.000000 1  1 (  11    )->(  35       )
 584     21.771 175595.  6  1  0.0000 0.000000 2  1 (  16  21)->(  22  40   )
 585     21.806 175881.  6  2  0.0000 0.000000 2  1 (  17  21)->(  22  39   )
 586     21.814 175940.  6  2  0.0000 0.000000 2  1 (  12  21)->(  22  31   )
 587     21.818 175972.  6  2  0.0000 0.000000 2  1 (  19  21)->(  22  40   )
 588     21.823 176015.  6  1  0.0000 0.000000 2  1 (  11  21)->(  22  33   )
 589     21.833 176094.  6  2  0.0000 0.000000 2  1 (  20  21)->(  22  41   )
 590     21.849 176227.  6  1  0.0000 0.000000 2  1 (  13  21)->(  22  38   )
 591     21.870 176392.  2  1  0.0000 0.220241 1  1 (   9    )->(  31       )
 592     21.892 176574.  6  1  0.0000 0.000000 2  1 (   9  21)->(  22  27   )
 593     21.897 176613.  2  1  0.0000 0.049546 1  1 (  11    )->(  36       )
 594     21.943 176981.  2  1  0.0000 0.000494 1  1 (   7    )->(  26       )
 595     21.948 177020.  6  2  0.0000 0.000000 2  1 (  15  21)->(  22  34   )
 596     21.952 177056.  2  1  0.0000 0.000000 1  1 (   8    )->(  26       )
 597     22.008 177506.  6  2  0.0000 0.000000 2  1 (  15  21)->(  22  35   )
 598     22.012 177535.  6  1  0.0000 0.000000 2  1 (  10  21)->(  22  30   )
 599     22.020 177603.  6  2  0.0000 0.000000 2  1 (  15  21)->(  22  38   )
 600     22.044 177799.  2  1  0.0000 0.362535 1  1 (   5    )->(  22       )
 601     22.047 177823.  6  2  0.0000 0.000000 2  1 (  11  21)->(  22  28   )
 602     22.050 177842.  6  2  0.0000 0.000000 2  1 (  16  21)->(  22  36   )
 603     22.059 177917.  6  2  0.0000 0.000000 2  1 (  18  21)->(  22  38   )
 604     22.100 178250.  6  2  0.0000 0.000000 2  1 (  15  21)->(  22  37   )
 605     22.254 179489.  6  2  0.0000 0.000000 2  1 (  12  21)->(  22  32   )
 606     22.267 179593.  6  2  0.0000 0.000000 2  1 (  18  21)->(  22  39   )
 607     22.283 179721.  6  1  0.0000 0.000000 2  1 (   9  21)->(  22  25   )
 608     22.305 179901.  6  1  0.0000 0.000000 2  1 (  12  21)->(  22  36   )
 609     22.312 179955.  6  1  0.0000 0.000000 2  1 (   9  21)->(  22  28   )
 610     22.314 179976.  2  1  0.0000 0.000000 1  1 (   9    )->(  32       )
 611     22.316 179992.  2  1  0.0000 0.000000 1  1 (  14    )->(  41       )
 612     22.327 180080.  6  2  0.0000 0.000000 2  1 (   9  21)->(  22  24   )
 613     22.343 180209.  6  2  0.0000 0.000000 2  1 (  10  21)->(  22  26   )
 614     22.360 180346.  2  1  0.0000 0.000000 1  1 (  11    )->(  37       )
 615     22.439 180980.  6  1  0.0000 0.000000 2  1 (  13  21)->(  22  39   )
 616     22.449 181063.  6  2  0.0000 0.000000 2  1 (  14  21)->(  22  34   )
 617     22.473 181258.  6  2  0.0000 0.000000 2  1 (  14  21)->(  22  35   )
 618     22.477 181290.  6  1  0.0000 0.000000 2  1 (  10  21)->(  22  31   )
 619     22.514 181591.  6  2  0.0000 0.000000 2  1 (  11  21)->(  22  29   )
 620     22.519 181632.  6  1  0.0000 0.000000 2  1 (  12  21)->(  22  37   )
 621     22.529 181708.  6  1  0.0000 0.000000 2  1 (  17  21)->(  22  40   )
 622     22.537 181772.  6  1  0.0000 0.000000 2  1 (  14  21)->(  22  40   )
 623     22.540 181795.  6  2  0.0000 0.000000 2  1 (  16  21)->(  22  37   )
 624     22.554 181908.  2  1  0.0000 0.032470 1  1 (  11    )->(  38       )
 625     22.564 181988.  2  1  0.0000 0.003637 1  1 (   9    )->(  33       )
 626     22.573 182065.  2  1  0.0000 0.004885 1  1 (   8    )->(  27       )
 627     22.606 182328.  6  1  0.0000 0.000000 2  1 (  20  21)->(  22  42   )
 628     22.636 182573.  6  1  0.0000 0.000000 2  1 (  19  21)->(  22  41   )
 629     22.655 182722.  2  1  0.0000 0.382573 1  1 (  18    )->(  42       )
 630     22.657 182738.  2  1  0.0000 0.000000 1  1 (   7    )->(  27       )
 631     22.678 182909.  6  2  0.0000 0.000000 2  1 (  12  21)->(  22  33   )
 632     22.685 182970.  6  1  0.0000 0.000000 2  1 (  18  21)->(  22  41   )
 633     22.688 182988.  2  1  0.0000 0.216840 1  1 (  15    )->(  42       )
 634     22.693 183033.  6  2  0.0000 0.000000 2  1 (  16  21)->(  22  38   )
 635     22.787 183790.  2  1  0.0000 0.000000 1  1 (   6    )->(  24       )
 636     22.789 183806.  6  2  0.0000 0.000000 2  1 (  14  21)->(  22  36   )
 637     22.834 184169.  6  2  0.0000 0.000000 2  1 (   9  21)->(  22  25   )
 638     22.862 184398.  6  1  0.0000 0.000000 2  1 (  12  21)->(  22  38   )
 639     22.868 184444.  2  1  0.0000 0.153236 1  1 (   6    )->(  25       )
[...]
    Config     674  -0.05073407  0.00257395
    Config     677   0.09658906  0.00932945
    Config     683  -0.04187382  0.00175342
    Config     727  -0.09812980  0.00962946
    Config     800  -0.04293196  0.00184315
    Config     905  -0.04692161  0.00220164
Total percent printed            0.92838774
  
State  497 21.6457     CI coeff  CI percent
    Config     255  -0.05294021  0.00280267
    Config     269   0.04722564  0.00223026
    Config     305  -0.07744524  0.00599776
    Config     328   0.04168266  0.00173744
    Config     330   0.09979668  0.00995938
    Config     337   0.06447266  0.00415672
    Config     339   0.10751245  0.01155893
    Config     348   0.05154695  0.00265709
    Config     362   0.16552075  0.02739712
    Config     374   0.05358842  0.00287172
    Config     384   0.10937915  0.01196380
    Config     385   0.09571483  0.00916133
    Config     387  -0.04917651  0.00241833
    Config     396   0.04537941  0.00205929
    Config     400  -0.04966775  0.00246689
    Config     405   0.08920442  0.00795743
    Config     408  -0.09769664  0.00954463
    Config     428  -0.04102319  0.00168290
    Config     430  -0.05038241  0.00253839
    Config     434  -0.04405288  0.00194066
    Config     440   0.09561909  0.00914301
    Config     447   0.05758997  0.00331660
    Config     454  -0.10741421  0.01153781
    Config     463  -0.04375829  0.00191479
    Config     465  -0.04935657  0.00243607
    Config     467  -0.06546062  0.00428509
    Config     470   0.10753354  0.01156346
    Config     472  -0.04197934  0.00176227
    Config     480   0.09778423  0.00956176
    Config     482  -0.10468226  0.01095838
    Config     485  -0.04162990  0.00173305
    Config     491  -0.20146355  0.04058756
    Config     496  -0.06244558  0.00389945
    Config     499  -0.42806741  0.18324170
    Config     501   0.07336569  0.00538253
    Config     502   0.10151707  0.01030572
    Config     509  -0.19164860  0.03672919
    Config     512  -0.05166873  0.00266966
    Config     513  -0.10728184  0.01150939
    Config     517   0.04730837  0.00223808
    Config     522  -0.06426956  0.00413058
    Config     533  -0.45111973  0.20350901
    Config     537  -0.09216146  0.00849373
    Config     541   0.12742652  0.01623752
    Config     545   0.07948302  0.00631755
    Config     550  -0.09919045  0.00983875
    Config     553   0.04258477  0.00181346
    Config     564   0.08133784  0.00661584
    Config     569  -0.05512118  0.00303835
    Config     583   0.16704177  0.02790295
    Config     596  -0.04344559  0.00188752
    Config     599  -0.06808721  0.00463587
    Config     603   0.14838699  0.02201870
    Config     613   0.05542231  0.00307163
    Config     622   0.11765773  0.01384334
    Config     631  -0.07849171  0.00616095
    Config     642   0.07051400  0.00497222
    Config     649   0.15037179  0.02261167
    Config     650   0.04653108  0.00216514
    Config     652   0.04233311  0.00179209
    Config     658   0.04001416  0.00160113
    Config     661   0.04996440  0.00249644
    Config     665  -0.06396946  0.00409209
    Config     674  -0.05615692  0.00315360
    Config     676   0.04645750  0.00215830
    Config     677   0.17457965  0.03047805
    Config     679   0.07603634  0.00578152
    Config     683  -0.05226088  0.00273120
    Config     692   0.04491436  0.00201730
    Config     696  -0.07475932  0.00558896
    Config     701  -0.04411880  0.00194647
    Config     717  -0.05206597  0.00271087
    Config     727   0.04899880  0.00240088
    Config     728   0.07170261  0.00514126
    Config     738   0.05716379  0.00326770
    Config     800   0.04532378  0.00205424
Total percent printed            0.93655519
  
State  498 21.6565     CI coeff  CI percent
    Config     273  -0.04190413  0.00175596
    Config     329  -0.04265200  0.00181919
    Config     335   0.06689967  0.00447557
    Config     353  -0.06684623  0.00446842
    Config     382   0.05535730  0.00306443
    Config     389  -0.06162018  0.00379705
    Config     395   0.06168803  0.00380541
    Config     415  -0.06664562  0.00444164
    Config     417  -0.06714323  0.00450821
    Config     418   0.08304937  0.00689720
    Config     445   0.07836353  0.00614084
    Config     475  -0.15309137  0.02343697
    Config     489  -0.06684528  0.00446829
    Config     493  -0.09674949  0.00936046
    Config     514   0.25621561  0.06564644
    Config     516   0.22620702  0.05116961
    Config     520  -0.05290614  0.00279906
    Config     521   0.09271418  0.00859592
    Config     523   0.30768007  0.09466702
    Config     526  -0.07621254  0.00580835
    Config     539   0.44861463  0.20125509
    Config     551   0.14546997  0.02116151
    Config     554   0.05436288  0.00295532
    Config     558  -0.08663701  0.00750597
    Config     562   0.04497409  0.00202267
    Config     577   0.19408612  0.03766942
    Config     578   0.41942544  0.17591770
    Config     594   0.06433680  0.00413922
    Config     597   0.10140491  0.01028295
    Config     602   0.04121997  0.00169909
    Config     604   0.07668646  0.00588081
    Config     605   0.18677919  0.03488646
    Config     606   0.10285862  0.01057990
    Config     617  -0.07789088  0.00606699
    Config     619   0.14103037  0.01988957
    Config     633   0.06649918  0.00442214
    Config     651  -0.07092394  0.00503021
    Config     660   0.15526628  0.02410762
    Config     663  -0.07445389  0.00554338
    Config     670  -0.08453798  0.00714667
    Config     688   0.05431180  0.00294977
    Config     699   0.04998883  0.00249888
    Config     718   0.06221578  0.00387080
    Config     719  -0.12251158  0.01500909
    Config     724   0.06318592  0.00399246
    Config     730   0.04373272  0.00191255
    Config     736  -0.05178462  0.00268165
    Config     766   0.06126563  0.00375348
    Config     767   0.05062557  0.00256295
    Config     776   0.04443300  0.00197429
    Config     790   0.08264192  0.00682969
Total percent printed            0.94732435
  
State  499 21.6705     CI coeff  CI percent
    Config     103  -0.04018927  0.00161518
    Config     135   0.08834007  0.00780397
    Config     154  -0.05863369  0.00343791
    Config     243  -0.05044243  0.00254444
    Config     264   0.04217318  0.00177858
    Config     305  -0.06160695  0.00379542
    Config     323  -0.05955913  0.00354729
    Config     330   0.05549785  0.00308001
    Config     339   0.04763533  0.00226912
    Config     344  -0.13638878  0.01860190
    Config     355   0.04461567  0.00199056
    Config     359  -0.04636780  0.00214997
    Config     361  -0.08604014  0.00740291
    Config     362   0.07152400  0.00511568
    Config     374   0.06562057  0.00430606
    Config     384   0.05197628  0.00270153
    Config     387  -0.18850058  0.03553247
    Config     408   0.05848944  0.00342101
    Config     412  -0.06349637  0.00403179
    Config     416  -0.05317544  0.00282763
    Config     419  -0.05513247  0.00303959
    Config     426  -0.12135869  0.01472793
    Config     428  -0.07390488  0.00546193
    Config     440   0.09004786  0.00810862
    Config     454  -0.04978385  0.00247843
    Config     459  -0.04245297  0.00180226
    Config     467   0.05322775  0.00283319
    Config     470  -0.10931888  0.01195062
    Config     472   0.14786312  0.02186350
    Config     480   0.23237428  0.05399780
    Config     482   0.07003227  0.00490452
    Config     491   0.14309798  0.02047703
    Config     496  -0.10689321  0.01142616
    Config     499  -0.17356175  0.03012368
    Config     501   0.05303382  0.00281259
    Config     502   0.07121523  0.00507161
    Config     509  -0.11744640  0.01379366
    Config     512  -0.13132658  0.01724667
    Config     517   0.07479930  0.00559494
    Config     522  -0.04083092  0.00166716
    Config     532   0.13030215  0.01697865
    Config     533   0.10662450  0.01136878
    Config     537   0.35328451  0.12480995
    Config     538   0.04643337  0.00215606
    Config     545  -0.07168594  0.00513887
    Config     546  -0.06877302  0.00472973
    Config     550  -0.08157815  0.00665499
    Config     553   0.09008819  0.00811588
    Config     564   0.05393806  0.00290931
    Config     567  -0.05796239  0.00335964
    Config     569   0.20625770  0.04254224
    Config     581  -0.16946915  0.02871979
    Config     582  -0.04066047  0.00165327
    Config     583  -0.30537003  0.09325086
    Config     595  -0.14188402  0.02013107
    Config     601  -0.14138334  0.01998925
    Config     611  -0.09450967  0.00893208
    Config     613  -0.05448251  0.00296834
    Config     614  -0.06964921  0.00485101
    Config     616   0.10966623  0.01202668
    Config     622   0.08613341  0.00741896
    Config     631  -0.07548396  0.00569783
    Config     640   0.09799218  0.00960247
    Config     641  -0.04967225  0.00246733
    Config     642   0.04845183  0.00234758
    Config     649   0.08002478  0.00640397
    Config     650  -0.17166703  0.02946957
    Config     658  -0.04558851  0.00207831
    Config     661  -0.15493434  0.02400465
    Config     676   0.05485593  0.00300917
    Config     679  -0.16180101  0.02617957
    Config     682   0.05204170  0.00270834
    Config     686  -0.06461303  0.00417484
    Config     687   0.06231666  0.00388337
    Config     692   0.04678100  0.00218846
    Config     701  -0.07009127  0.00491279
    Config     702  -0.07664267  0.00587410
    Config     717   0.08072406  0.00651637
    Config     728  -0.05784198  0.00334570
    Config     733  -0.04926596  0.00242713
    Config     738  -0.05527163  0.00305495
    Config     770  -0.05795034  0.00335824
    Config     785  -0.05233595  0.00273905
Total percent printed            0.94248454
  
State  500 21.6923     CI coeff  CI percent
    Config     135  -0.07444232  0.00554166
    Config     154   0.04486870  0.00201320
    Config     211  -0.04814537  0.00231798
    Config     243   0.06096336  0.00371653
    Config     305  -0.06631368  0.00439750
    Config     323   0.05399058  0.00291498
    Config     337  -0.08424248  0.00709680
    Config     339   0.11408688  0.01301582
    Config     344   0.10216713  0.01043812
    Config     362   0.18649722  0.03478121
    Config     374  -0.06741374  0.00454461
    Config     376   0.05998412  0.00359809
    Config     384   0.07292480  0.00531803
    Config     385  -0.04221700  0.00178228
    Config     387   0.16040707  0.02573043
    Config     392   0.05554031  0.00308473
    Config     402   0.05100807  0.00260182
    Config     408   0.05298187  0.00280708
    Config     426   0.10802146  0.01166864
    Config     428   0.04156876  0.00172796
    Config     430  -0.06517204  0.00424739
    Config     440   0.09943378  0.00988708
    Config     454  -0.10023993  0.01004804
    Config     462  -0.05000586  0.00250059
    Config     463  -0.04006812  0.00160545
    Config     470  -0.07911802  0.00625966
    Config     480  -0.24257688  0.05884354
    Config     485   0.09506411  0.00903718
    Config     491   0.30677273  0.09410951
    Config     499  -0.47638974  0.22694719
    Config     502  -0.07407622  0.00548729
    Config     512   0.05873151  0.00344939
    Config     513   0.07752441  0.00601003
    Config     517  -0.09367599  0.00877519
    Config     522  -0.11045987  0.01220138
    Config     532  -0.09181446  0.00842990
    Config     533   0.29008127  0.08414714
    Config     537  -0.07416660  0.00550069
    Config     541  -0.07373973  0.00543755
    Config     545  -0.05853108  0.00342589
    Config     546  -0.09053325  0.00819627
    Config     553   0.12864739  0.01655015
    Config     563   0.13324027  0.01775297
    Config     567   0.04653386  0.00216540
    Config     569  -0.06682190  0.00446517
    Config     581   0.05201167  0.00270521
    Config     595   0.09092025  0.00826649
    Config     596   0.07031213  0.00494380
    Config     601   0.11075587  0.01226686
    Config     603  -0.11149032  0.01243009
    Config     610  -0.04069674  0.00165622
    Config     611  -0.05460062  0.00298123
    Config     614   0.05141396  0.00264339
    Config     616  -0.07765123  0.00602971
    Config     622   0.10083824  0.01016835
    Config     631   0.04829289  0.00233220
    Config     641   0.11317968  0.01280964
    Config     649   0.17551072  0.03080401
    Config     652  -0.05307381  0.00281683
    Config     661   0.05304943  0.00281424
    Config     665  -0.06067171  0.00368106
    Config     677  -0.13115691  0.01720213
    Config     687  -0.06602135  0.00435882
    Config     692  -0.10666516  0.01137746
    Config     696  -0.07824196  0.00612181
    Config     701   0.07055006  0.00497731
    Config     728  -0.04367636  0.00190762
    Config     739   0.05191176  0.00269483
    Config     800   0.04267128  0.00182084
Total percent printed            0.93438767
  

 -------------------------------------------------------------------------------
 INDO CISD CHARGE=0 C.I.D.=(2,1)




     1SCF WAS SPECIFIED, SO BFGS WAS NOT USED                 
     SCF FIELD WAS ACHIEVED                                   


                              INDO CALCULATION
                                                       MOPAC2016 (Version: 20.173L)
                                                       Mon Jun 29 13:17:21 2020




          FINAL HEAT OF FORMATION =     -30370.74200 KCAL/MOL = -127071.18454 KJ/MOL


          TOTAL ENERGY            =      -1398.87867 EV
          ELECTRONIC ENERGY       =      -4434.97073 EV  POINT GROUP:     C2h 
          CORE-CORE REPULSION     =       3036.09207 EV
          COSMO AREA              =        178.91 SQUARE ANGSTROMS
          COSMO VOLUME            =        165.66 CUBIC ANGSTROMS

          IONIZATION POTENTIAL    =          7.425806 EV
          HOMO LUMO ENERGIES (EV) =         -7.426 -0.455
          NO. OF FILLED LEVELS    =         21
          MOLECULAR WEIGHT        =        106.1670

          MOLECULAR DIMENSIONS (Angstroms)

            Atom       Atom       Distance
            H    18    H     9    10.50130
            H    17    H    10     3.17092
            C     1    C     2     0.00000


          SCF CALCULATIONS        =          1
 
          WALL-CLOCK TIME         =  1 MINUTE AND 13.707 SECONDS
          COMPUTATION TIME        =  1 MINUTE AND 16.336 SECONDS




   ATOM   CHEMICAL          X               Y               Z
  NUMBER   SYMBOL      (ANGSTROMS)     (ANGSTROMS)     (ANGSTROMS)
 
     1       C          0.13642800  *   4.31261200  *   0.00000000  *
     2       C          0.65084500  *   3.07095700  *   0.00000000  *
     3       C         -0.13642800  *   1.85596900  *   0.00000000  *
     4       C          0.38926300  *   0.60631000  *   0.00000000  *
     5       C         -0.38926300  *  -0.60631000  *   0.00000000  *
     6       C          0.13642800  *  -1.85596900  *   0.00000000  *
     7       C         -0.65084500  *  -3.07095700  *   0.00000000  *
     8       C         -0.13642800  *  -4.31261200  *   0.00000000  *
     9       H          0.77042500  *   5.19381900  *   0.00000000  *
    10       H         -0.93776100  *   4.48341300  *   0.00000000  *
    11       H          1.73423700  *   2.94537900  *   0.00000000  *
    12       H         -1.22106200  *   1.97279000  *   0.00000000  *
    13       H          1.47457700  *   0.49428800  *   0.00000000  *
    14       H         -1.47457700  *  -0.49428800  *   0.00000000  *
    15       H          1.22106200  *  -1.97279000  *   0.00000000  *
    16       H         -1.73423700  *  -2.94537900  *   0.00000000  *
    17       H          0.93776100  *  -4.48341300  *   0.00000000  *
    18       H         -0.77042500  *  -5.19381900  *   0.00000000  *

                             CARTESIAN COORDINATES

   1    C        0.136428000     4.312612000     0.000000000
   2    C        0.650845000     3.070957000     0.000000000
   3    C       -0.136428000     1.855969000     0.000000000
   4    C        0.389263000     0.606310000     0.000000000
   5    C       -0.389263000    -0.606310000     0.000000000
   6    C        0.136428000    -1.855969000     0.000000000
   7    C       -0.650845000    -3.070957000     0.000000000
   8    C       -0.136428000    -4.312612000     0.000000000
   9    H        0.770425000     5.193819000     0.000000000
  10    H       -0.937761000     4.483413000     0.000000000
  11    H        1.734237000     2.945379000     0.000000000
  12    H       -1.221062000     1.972790000     0.000000000
  13    H        1.474577000     0.494288000     0.000000000
  14    H       -1.474577000    -0.494288000     0.000000000
  15    H        1.221062000    -1.972790000     0.000000000
  16    H       -1.734237000    -2.945379000     0.000000000
  17    H        0.937761000    -4.483413000     0.000000000
  18    H       -0.770425000    -5.193819000     0.000000000


           Empirical Formula: C8 H10  =    18 atoms



      MOLECULAR POINT GROUP   :   C2h 


                  EIGENVALUES  
 -40.18409 -38.11453 -35.02602 -31.26250 -26.60496 -24.72015 -22.86493 -22.65749
 -20.09911 -18.94038 -17.37719 -15.84646 -14.72784 -13.99746 -13.28861 -13.16947
 -12.70067 -12.63575 -11.37526  -9.49409  -7.42581  -0.45492   1.09247   2.22090
   2.85863   3.02519   3.53446   4.03389   4.45343   4.82278   5.36732   5.94660
   6.34063   7.61307   7.63118   8.34458   8.72193   9.01224   9.66639  10.57406
  12.22329  13.98093


              NET ATOMIC CHARGES AND DIPOLE CONTRIBUTIONS

  ATOM NO.   TYPE          CHARGE      No. of ELECS.   s-Pop       p-Pop       
    1          C          -0.068530        4.0685     1.11232     2.95621
    2          C          -0.014271        4.0143     1.08070     2.93357
    3          C          -0.024494        4.0245     1.08495     2.93954
    4          C          -0.023249        4.0232     1.08499     2.93826
    5          C          -0.023249        4.0232     1.08499     2.93826
    6          C          -0.024494        4.0245     1.08495     2.93954
    7          C          -0.014271        4.0143     1.08070     2.93357
    8          C          -0.068530        4.0685     1.11232     2.95621
    9          H           0.023504        0.9765     0.97650
   10          H           0.026372        0.9736     0.97363
   11          H           0.026948        0.9731     0.97305
   12          H           0.027216        0.9728     0.97278
   13          H           0.026504        0.9735     0.97350
   14          H           0.026504        0.9735     0.97350
   15          H           0.027216        0.9728     0.97278
   16          H           0.026948        0.9731     0.97305
   17          H           0.026372        0.9736     0.97363
   18          H           0.023504        0.9765     0.97650
 DIPOLE           X         Y         Z       TOTAL
 POINT-CHG.     0.000    -0.000     0.000     0.000
 HYBRID         0.000     0.000    -0.000     0.000
 SUM            0.000    -0.000    -0.000     0.000


          ATOMIC ORBITAL ELECTRON POPULATIONS

     Atom    s        px        py        pz   
    1  C   1.11232   0.96406   0.97212   1.02003
    2  C   1.08070   0.96307   0.98799   0.98251
    3  C   1.08495   0.96147   0.97725   1.00082
    4  C   1.08499   0.96224   0.97939   0.99663
    5  C   1.08499   0.96224   0.97939   0.99663
    6  C   1.08495   0.96147   0.97725   1.00082
    7  C   1.08070   0.96307   0.98799   0.98251
    8  C   1.11232   0.96406   0.97212   1.02003
    9  H   0.97650
   10  H   0.97363
   11  H   0.97305
   12  H   0.97278
   13  H   0.97350
   14  H   0.97350
   15  H   0.97278
   16  H   0.97305
   17  H   0.97363
   18  H   0.97650

 **********************
 *                    *
 * JOB ENDED NORMALLY *
 *                    *
 **********************



 TOTAL JOB TIME:            73.74 SECONDS

 == MOPAC DONE ==
