 *******************************************************************************
 ** Site#:    0         For non-commercial use only    Version 20.173L 64BITS **
 *******************************************************************************
 ** Cite this program as: MOPAC2016, Version: 20.173L, James J. P. Stewart,   **
 ** Stewart Computational Chemistry, web-site: HTTP://OpenMOPAC.net.          **
 *******************************************************************************
 **                                                                           **
 **                                MOPAC2016                                  **
 **                                                                           **
 *******************************************************************************

                              INDO CALCULATION RESULTS

 *******************************************************************************
 *  CALCULATION DONE:                                Wed Dec  1 19:10:33 2021  *
 *  INDO       - The INDO Hamiltonian to be used
 *  CIS        - C.I. USES 1 ELECTRON EXCITATIONS ONLY
 *  T=         - A TIME OF 172800.0 SECONDS REQUESTED
 *  DUMP=N     - RESTART FILE WRITTEN EVERY 7200.0 SECONDS REQUESTED
 *******************************************************************************
INDO CIS
 Ag4

   ATOM   CHEMICAL          X               Y               Z
  NUMBER   SYMBOL      (ANGSTROMS)     (ANGSTROMS)     (ANGSTROMS)
 
     1      Ag          0.00000000     -2.71000000      0.00000000   
     2      Ag          0.00000000      0.00000000      0.00000000   
     3      Ag          0.00000000      2.71000000      0.00000000   
     4      Ag          0.00000000      5.42000000      0.00000000   
 


          CARTESIAN COORDINATES 

    NO.       ATOM           X           Y           Z

     1        Ag          0.0000     -2.7100      0.0000
     2        Ag          0.0000      0.0000      0.0000
     3        Ag          0.0000      2.7100      0.0000
     4        Ag          0.0000      5.4200      0.0000

           Empirical Formula: Ag4  =     4 atoms



      MOLECULAR POINT GROUP   :   D*h 


      RHF CALCULATION, NO. OF DOUBLY OCCUPIED LEVELS = 22

 WARNING: INDO only performs single-point calculations

 Summary of symmetry occupancy in each shell:

 SHELL     
    1   22
    v   14
 TOTAL  36




    ROOT NO.    1           2           3           4           5           6

           -14.09580   -13.42307   -13.23759   -13.22842   -13.10756   -13.10045
  
  
  S Ag   1  -0.04731     0.02562     0.00000     0.00000     0.00000    -0.00000
 PX Ag   1   0.00000     0.00000    -0.03723    -0.00000     0.02527     0.00000
 PY Ag   1  -0.05412     0.03779     0.00000     0.00000     0.00000    -0.00000
 PZ Ag   1  -0.00000     0.00000     0.00000    -0.03711     0.00000     0.02519
 Z2 Ag   1   0.20546    -0.30921    -0.00000    -0.00000    -0.00000     0.00000
 X2 Ag   1   0.35601    -0.53598    -0.00000    -0.00000    -0.00000    -0.00000
 XY Ag   1   0.00000     0.00000    -0.49542     0.00000     0.63683    -0.00000
 XZ Ag   1   0.00000    -0.00000    -0.00000    -0.00000     0.00000     0.00000
 YZ Ag   1  -0.00000     0.00000     0.00000    -0.49769     0.00000     0.63740
  
  S Ag   2  -0.08477     0.02517     0.00000     0.00000    -0.00000    -0.00000
 PX Ag   2   0.00000    -0.00000    -0.00119     0.00000     0.06647    -0.00000
 PY Ag   2  -0.01548    -0.07943    -0.00000    -0.00000    -0.00000    -0.00000
 PZ Ag   2  -0.00000    -0.00000     0.00000    -0.00153     0.00000     0.06645
 Z2 Ag   2   0.28162    -0.16387    -0.00000    -0.00000     0.00000     0.00000
 X2 Ag   2   0.48901    -0.28502    -0.00000    -0.00000    -0.00000     0.00000
 XY Ag   2  -0.00000    -0.00000     0.50317     0.00000    -0.29898    -0.00000
 XZ Ag   2  -0.00000     0.00000    -0.00000    -0.00000     0.00000     0.00000
 YZ Ag   2  -0.00000    -0.00000    -0.00000     0.50093    -0.00000    -0.29778
  
  S Ag   3  -0.08477    -0.02517    -0.00000    -0.00000    -0.00000    -0.00000
 PX Ag   3   0.00000     0.00000    -0.00119    -0.00000    -0.06647     0.00000
 PY Ag   3   0.01548    -0.07943    -0.00000    -0.00000    -0.00000     0.00000
 PZ Ag   3  -0.00000    -0.00000    -0.00000    -0.00153    -0.00000    -0.06645
 Z2 Ag   3   0.28162     0.16387     0.00000    -0.00000    -0.00000     0.00000
 X2 Ag   3   0.48901     0.28502     0.00000     0.00000     0.00000     0.00000
 XY Ag   3   0.00000     0.00000    -0.50317    -0.00000    -0.29898     0.00000
 XZ Ag   3  -0.00000    -0.00000     0.00000     0.00000    -0.00000    -0.00000
 YZ Ag   3   0.00000     0.00000     0.00000    -0.50093     0.00000    -0.29778
  
  S Ag   4  -0.04731    -0.02562    -0.00000    -0.00000     0.00000    -0.00000
 PX Ag   4  -0.00000     0.00000    -0.03723    -0.00000    -0.02527     0.00000
 PY Ag   4   0.05412     0.03779     0.00000     0.00000     0.00000     0.00000
 PZ Ag   4   0.00000     0.00000     0.00000    -0.03711     0.00000    -0.02519
 Z2 Ag   4   0.20546     0.30921    -0.00000    -0.00000    -0.00000     0.00000
 X2 Ag   4   0.35601     0.53598     0.00000     0.00000     0.00000    -0.00000
 XY Ag   4  -0.00000    -0.00000     0.49542     0.00000     0.63683    -0.00000
 XZ Ag   4   0.00000     0.00000    -0.00000     0.00000    -0.00000    -0.00000
 YZ Ag   4  -0.00000    -0.00000     0.00000     0.49769     0.00000     0.63740




    ROOT NO.    7           8           9          10          11          12

           -12.85724   -12.85571   -12.85139   -12.84988   -12.56778   -12.55879
  
  
  S Ag   1   0.00000    -0.00000    -0.00001    -0.00001     0.00000    -0.00000
 PX Ag   1   0.00000     0.00000     0.00000     0.00000    -0.03510     0.00000
 PY Ag   1  -0.00000     0.00000    -0.00002    -0.00002     0.00000    -0.00000
 PZ Ag   1   0.00000    -0.00000    -0.00000     0.00000    -0.00000    -0.03530
 Z2 Ag   1  -0.00000     0.00000     0.60684     0.60901    -0.00000    -0.00000
 X2 Ag   1   0.00000    -0.00000    -0.35025    -0.35132     0.00000    -0.00000
 XY Ag   1  -0.00000    -0.00000     0.00000     0.00000     0.50139    -0.00000
 XZ Ag   1   0.70055     0.70302    -0.00000    -0.00000     0.00000    -0.00000
 YZ Ag   1   0.00000    -0.00000    -0.00000     0.00000     0.00000     0.49913
  
  S Ag   2   0.00000    -0.00000    -0.00002    -0.00001     0.00000    -0.00000
 PX Ag   2  -0.00000    -0.00000     0.00000    -0.00000     0.07781    -0.00000
 PY Ag   2  -0.00000    -0.00000    -0.00001     0.00003     0.00000    -0.00000
 PZ Ag   2   0.00000    -0.00000     0.00000    -0.00000     0.00000     0.07785
 Z2 Ag   2  -0.00000     0.00000     0.08254     0.06532     0.00000     0.00000
 X2 Ag   2   0.00000    -0.00000    -0.04753    -0.03761    -0.00000     0.00000
 XY Ag   2  -0.00000    -0.00000    -0.00000    -0.00000     0.49125    -0.00000
 XZ Ag   2   0.09604     0.07587    -0.00000    -0.00000    -0.00000     0.00000
 YZ Ag   2  -0.00000     0.00000     0.00000    -0.00000     0.00000     0.49352
  
  S Ag   3   0.00000    -0.00000    -0.00002     0.00001    -0.00000    -0.00000
 PX Ag   3  -0.00000     0.00000    -0.00000     0.00000     0.07781    -0.00000
 PY Ag   3  -0.00000    -0.00000     0.00001     0.00003    -0.00000     0.00000
 PZ Ag   3  -0.00000     0.00000     0.00000    -0.00000     0.00000     0.07785
 Z2 Ag   3  -0.00000     0.00000     0.08254    -0.06532     0.00000     0.00000
 X2 Ag   3   0.00000    -0.00000    -0.04753     0.03761    -0.00000     0.00000
 XY Ag   3   0.00000     0.00000    -0.00000     0.00000    -0.49125    -0.00000
 XZ Ag   3   0.09604    -0.07587     0.00000     0.00000     0.00000    -0.00000
 YZ Ag   3   0.00000    -0.00000    -0.00000     0.00000    -0.00000    -0.49352
  
  S Ag   4   0.00000    -0.00000    -0.00001     0.00001    -0.00000    -0.00000
 PX Ag   4   0.00000    -0.00000    -0.00000     0.00000    -0.03510    -0.00000
 PY Ag   4   0.00000     0.00000     0.00002    -0.00002    -0.00000     0.00000
 PZ Ag   4   0.00000    -0.00000    -0.00000     0.00000    -0.00000    -0.03530
 Z2 Ag   4  -0.00000     0.00000     0.60684    -0.60901    -0.00000    -0.00000
 X2 Ag   4   0.00000    -0.00000    -0.35025     0.35132     0.00000    -0.00000
 XY Ag   4   0.00000    -0.00000     0.00000    -0.00000    -0.50139     0.00000
 XZ Ag   4   0.70055    -0.70302     0.00000     0.00000     0.00000     0.00000
 YZ Ag   4   0.00000    -0.00000    -0.00000     0.00000    -0.00000    -0.49913




    ROOT NO.   13          14          15          16          17          18

           -12.46744   -12.45842   -12.36407   -12.35502   -12.32489   -11.88240
  
  
  S Ag   1   0.00000     0.00027     0.00000    -0.00005     0.04452     0.00000
 PX Ag   1  -0.00000     0.00000     0.00000     0.00000    -0.00000    -0.05473
 PY Ag   1   0.00000     0.00016     0.00000    -0.00004     0.02978     0.00000
 PZ Ag   1   0.00000     0.00000    -0.00000    -0.00000    -0.00000    -0.00000
 Z2 Ag   1   0.00000    -0.08023    -0.00000     0.06479     0.28535     0.00000
 X2 Ag   1  -0.00000     0.05153     0.00000    -0.03852     0.49286    -0.00000
 XY Ag   1   0.00000    -0.00000    -0.00000     0.00000    -0.00000     0.30355
 XZ Ag   1  -0.09604    -0.00000     0.07587     0.00000    -0.00000     0.00000
 YZ Ag   1   0.00000    -0.00000     0.00000     0.00000     0.00000     0.00000
  
  S Ag   2  -0.00000    -0.00014     0.00000     0.00012    -0.00614    -0.00000
 PX Ag   2   0.00000    -0.00000    -0.00000     0.00000    -0.00000    -0.02829
 PY Ag   2   0.00000     0.00057     0.00000    -0.00001     0.08490    -0.00000
 PZ Ag   2  -0.00000    -0.00000     0.00000     0.00000     0.00000     0.00000
 Z2 Ag   2  -0.00000     0.60552     0.00000    -0.60858    -0.20786    -0.00000
 X2 Ag   2   0.00000    -0.35249    -0.00000     0.35206    -0.34977    -0.00000
 XY Ag   2   0.00000    -0.00000    -0.00000    -0.00000     0.00000     0.63566
 XZ Ag   2   0.70055     0.00000    -0.70302    -0.00000     0.00000    -0.00000
 YZ Ag   2   0.00000    -0.00000     0.00000     0.00000     0.00000     0.00000
  
  S Ag   3  -0.00000    -0.00014    -0.00000    -0.00012    -0.00614     0.00000
 PX Ag   3   0.00000    -0.00000    -0.00000    -0.00000     0.00000     0.02829
 PY Ag   3  -0.00000    -0.00057    -0.00000    -0.00001    -0.08490     0.00000
 PZ Ag   3   0.00000    -0.00000     0.00000     0.00000     0.00000     0.00000
 Z2 Ag   3  -0.00000     0.60552    -0.00000     0.60858    -0.20786     0.00000
 X2 Ag   3   0.00000    -0.35249     0.00000    -0.35206    -0.34977     0.00000
 XY Ag   3  -0.00000     0.00000     0.00000     0.00000     0.00000     0.63566
 XZ Ag   3   0.70055     0.00000     0.70302     0.00000    -0.00000     0.00000
 YZ Ag   3   0.00000     0.00000    -0.00000    -0.00000    -0.00000    -0.00000
  
  S Ag   4   0.00000     0.00027     0.00000     0.00005     0.04452    -0.00000
 PX Ag   4  -0.00000     0.00000     0.00000     0.00000     0.00000     0.05473
 PY Ag   4  -0.00000    -0.00016    -0.00000    -0.00004    -0.02978     0.00000
 PZ Ag   4   0.00000     0.00000    -0.00000    -0.00000    -0.00000    -0.00000
 Z2 Ag   4   0.00000    -0.08023     0.00000    -0.06479     0.28535    -0.00000
 X2 Ag   4  -0.00000     0.05153     0.00000     0.03852     0.49286    -0.00000
 XY Ag   4  -0.00000     0.00000     0.00000     0.00000     0.00000     0.30355
 XZ Ag   4  -0.09604    -0.00000    -0.07587    -0.00000     0.00000     0.00000
 YZ Ag   4   0.00000     0.00000    -0.00000    -0.00000    -0.00000    -0.00000




    ROOT NO.   19          20          21          22          23          24

           -11.87137   -11.25274    -7.94998    -6.91636    -2.94253    -1.21293
  
  
  S Ag   1   0.00000     0.06051     0.37705     0.53961     0.55025     0.43993
 PX Ag   1  -0.00000     0.00000     0.00000     0.00000     0.00000    -0.00000
 PY Ag   1   0.00000     0.05140     0.10062     0.11465    -0.03048    -0.25321
 PZ Ag   1  -0.05484     0.00000    -0.00000    -0.00000     0.00000    -0.00000
 Z2 Ag   1   0.00000     0.16563     0.02005     0.02372    -0.00479    -0.02881
 X2 Ag   1   0.00000     0.28674     0.03473     0.04108    -0.00830    -0.04988
 XY Ag   1  -0.00000    -0.00000     0.00000     0.00000     0.00000     0.00000
 XZ Ag   1   0.00000     0.00000     0.00000     0.00000     0.00000     0.00000
 YZ Ag   1   0.30236    -0.00000     0.00000     0.00000    -0.00000    -0.00000
  
  S Ag   2   0.00000    -0.08689     0.57956     0.40187    -0.34219    -0.47701
 PX Ag   2  -0.00000    -0.00000     0.00000     0.00000     0.00000    -0.00000
 PY Ag   2   0.00000    -0.02569     0.01712    -0.17440    -0.28113     0.09210
 PZ Ag   2  -0.02845     0.00000     0.00000     0.00000    -0.00000    -0.00000
 Z2 Ag   2  -0.00000    -0.30738     0.04982     0.01942    -0.00448     0.02743
 X2 Ag   2  -0.00000    -0.53043     0.08622     0.03365    -0.00773     0.04748
 XY Ag   2   0.00000    -0.00000     0.00000     0.00000     0.00000    -0.00000
 XZ Ag   2  -0.00000    -0.00000     0.00000     0.00000    -0.00000    -0.00000
 YZ Ag   2   0.63621     0.00000    -0.00000    -0.00000     0.00000     0.00000
  
  S Ag   3  -0.00000     0.08689     0.57956    -0.40187    -0.34219     0.47701
 PX Ag   3  -0.00000    -0.00000     0.00000     0.00000    -0.00000    -0.00000
 PY Ag   3  -0.00000    -0.02569    -0.01712    -0.17440     0.28113     0.09210
 PZ Ag   3   0.02845     0.00000     0.00000     0.00000    -0.00000    -0.00000
 Z2 Ag   3  -0.00000     0.30738     0.04982    -0.01942    -0.00448    -0.02743
 X2 Ag   3  -0.00000     0.53043     0.08622    -0.03365    -0.00773    -0.04748
 XY Ag   3   0.00000    -0.00000    -0.00000     0.00000     0.00000     0.00000
 XZ Ag   3   0.00000     0.00000    -0.00000    -0.00000     0.00000     0.00000
 YZ Ag   3   0.63621     0.00000    -0.00000    -0.00000     0.00000     0.00000
  
  S Ag   4   0.00000    -0.06051     0.37705    -0.53961     0.55025    -0.43993
 PX Ag   4   0.00000    -0.00000    -0.00000    -0.00000     0.00000    -0.00000
 PY Ag   4  -0.00000     0.05140    -0.10062     0.11465     0.03048    -0.25321
 PZ Ag   4   0.05484    -0.00000    -0.00000    -0.00000    -0.00000    -0.00000
 Z2 Ag   4   0.00000    -0.16563     0.02005    -0.02372    -0.00479     0.02881
 X2 Ag   4   0.00000    -0.28674     0.03473    -0.04108    -0.00830     0.04988
 XY Ag   4   0.00000    -0.00000    -0.00000     0.00000    -0.00000    -0.00000
 XZ Ag   4   0.00000    -0.00000    -0.00000     0.00000    -0.00000     0.00000
 YZ Ag   4   0.30236     0.00000    -0.00000    -0.00000     0.00000    -0.00000




    ROOT NO.   25          26          27          28          29          30

             0.32577     1.08291     1.08477     1.55919     1.56069     1.61328
  
  
  S Ag   1   0.18929     0.00000     0.00000    -0.00000     0.00000     0.02207
 PX Ag   1  -0.00000     0.48006    -0.00000    -0.65650     0.00000    -0.00000
 PY Ag   1  -0.46686    -0.00000    -0.00000    -0.00000     0.00000     0.56056
 PZ Ag   1  -0.00000     0.00000     0.48035    -0.00000    -0.65660     0.00000
 Z2 Ag   1  -0.02665     0.00000    -0.00000    -0.00000     0.00000     0.00037
 X2 Ag   1  -0.04615    -0.00000    -0.00000    -0.00000    -0.00000     0.00063
 XY Ag   1  -0.00000    -0.04209    -0.00000     0.01672    -0.00000     0.00000
 XZ Ag   1  -0.00000    -0.00000    -0.00000     0.00000    -0.00000    -0.00000
 YZ Ag   1  -0.00000     0.00000    -0.04209     0.00000     0.01671    -0.00000
  
  S Ag   2  -0.05547    -0.00000    -0.00000     0.00000    -0.00000    -0.31740
 PX Ag   2   0.00000     0.51745    -0.00000    -0.25101     0.00000     0.00000
 PY Ag   2   0.48997    -0.00000     0.00000     0.00000    -0.00000    -0.27079
 PZ Ag   2  -0.00000    -0.00000     0.51718    -0.00000    -0.25073     0.00000
 Z2 Ag   2   0.00753    -0.00000     0.00000    -0.00000     0.00000     0.05296
 X2 Ag   2   0.01300    -0.00000     0.00000     0.00000     0.00000     0.09171
 XY Ag   2  -0.00000    -0.00470    -0.00000    -0.07568     0.00000    -0.00000
 XZ Ag   2   0.00000     0.00000    -0.00000    -0.00000     0.00000    -0.00000
 YZ Ag   2   0.00000    -0.00000    -0.00465    -0.00000    -0.07575     0.00000
  
  S Ag   3  -0.05547     0.00000    -0.00000    -0.00000     0.00000     0.31740
 PX Ag   3  -0.00000     0.51745    -0.00000     0.25101    -0.00000     0.00000
 PY Ag   3  -0.48997    -0.00000    -0.00000     0.00000    -0.00000    -0.27079
 PZ Ag   3  -0.00000     0.00000     0.51718     0.00000     0.25073    -0.00000
 Z2 Ag   3   0.00753    -0.00000     0.00000     0.00000    -0.00000    -0.05296
 X2 Ag   3   0.01300    -0.00000     0.00000     0.00000    -0.00000    -0.09171
 XY Ag   3  -0.00000     0.00470    -0.00000    -0.07568     0.00000     0.00000
 XZ Ag   3   0.00000     0.00000    -0.00000     0.00000     0.00000     0.00000
 YZ Ag   3   0.00000    -0.00000     0.00465    -0.00000    -0.07575     0.00000
  
  S Ag   4   0.18929    -0.00000     0.00000    -0.00000    -0.00000    -0.02207
 PX Ag   4  -0.00000     0.48006    -0.00000     0.65650    -0.00000    -0.00000
 PY Ag   4   0.46686     0.00000     0.00000    -0.00000     0.00000     0.56056
 PZ Ag   4  -0.00000     0.00000     0.48035     0.00000     0.65660    -0.00000
 Z2 Ag   4  -0.02665     0.00000    -0.00000     0.00000    -0.00000    -0.00037
 X2 Ag   4  -0.04615     0.00000    -0.00000    -0.00000    -0.00000    -0.00063
 XY Ag   4  -0.00000     0.04209    -0.00000     0.01672    -0.00000     0.00000
 XZ Ag   4   0.00000    -0.00000     0.00000    -0.00000    -0.00000     0.00000
 YZ Ag   4   0.00000    -0.00000     0.04209     0.00000     0.01671     0.00000




    ROOT NO.   31          32          33          34          35          36

             2.20461     2.20652     2.67317     2.67547     3.01409     4.32871
  
  
  S Ag   1   0.00000    -0.00000    -0.00000     0.00000     0.12250     0.10234
 PX Ag   1   0.51665     0.00000     0.25569    -0.00000     0.00000    -0.00000
 PY Ag   1   0.00000     0.00000    -0.00000     0.00000     0.51689     0.32317
 PZ Ag   1  -0.00000     0.51638    -0.00000     0.25542    -0.00000    -0.00000
 Z2 Ag   1   0.00000     0.00000     0.00000    -0.00000    -0.02314    -0.02177
 X2 Ag   1  -0.00000     0.00000     0.00000    -0.00000    -0.04008    -0.03770
 XY Ag   1   0.03747     0.00000     0.04497     0.00000     0.00000    -0.00000
 XZ Ag   1  -0.00000     0.00000    -0.00000    -0.00000     0.00000    -0.00000
 YZ Ag   1  -0.00000     0.03751    -0.00000     0.04499    -0.00000     0.00000
  
  S Ag   2  -0.00000     0.00000     0.00000    -0.00000    -0.19162     0.04511
 PX Ag   2  -0.47560    -0.00000    -0.65710     0.00000    -0.00000     0.00000
 PY Ag   2  -0.00000     0.00000    -0.00000     0.00000     0.41612     0.61710
 PZ Ag   2   0.00000    -0.47588    -0.00000    -0.65720     0.00000     0.00000
 Z2 Ag   2   0.00000    -0.00000    -0.00000     0.00000     0.03811    -0.00927
 X2 Ag   2   0.00000     0.00000    -0.00000     0.00000     0.06597    -0.01609
 XY Ag   2   0.07400     0.00000    -0.02870     0.00000    -0.00000    -0.00000
 XZ Ag   2   0.00000    -0.00000     0.00000    -0.00000    -0.00000     0.00000
 YZ Ag   2  -0.00000     0.07406     0.00000    -0.02875     0.00000    -0.00000
  
  S Ag   3   0.00000    -0.00000     0.00000    -0.00000    -0.19162    -0.04511
 PX Ag   3  -0.47560    -0.00000     0.65710    -0.00000     0.00000     0.00000
 PY Ag   3  -0.00000    -0.00000     0.00000    -0.00000    -0.41612     0.61710
 PZ Ag   3   0.00000    -0.47588    -0.00000     0.65720    -0.00000    -0.00000
 Z2 Ag   3   0.00000     0.00000     0.00000     0.00000     0.03811     0.00927
 X2 Ag   3  -0.00000     0.00000     0.00000     0.00000     0.06597     0.01609
 XY Ag   3  -0.07400     0.00000    -0.02870     0.00000     0.00000     0.00000
 XZ Ag   3   0.00000     0.00000    -0.00000     0.00000     0.00000    -0.00000
 YZ Ag   3   0.00000    -0.07406    -0.00000    -0.02875     0.00000     0.00000
  
  S Ag   4  -0.00000    -0.00000    -0.00000     0.00000     0.12250    -0.10234
 PX Ag   4   0.51665     0.00000    -0.25569    -0.00000    -0.00000    -0.00000
 PY Ag   4   0.00000    -0.00000     0.00000    -0.00000    -0.51689     0.32317
 PZ Ag   4   0.00000     0.51638    -0.00000    -0.25542     0.00000    -0.00000
 Z2 Ag   4   0.00000    -0.00000     0.00000    -0.00000    -0.02314     0.02177
 X2 Ag   4   0.00000     0.00000    -0.00000     0.00000    -0.04008     0.03770
 XY Ag   4  -0.03747     0.00000     0.04497     0.00000     0.00000    -0.00000
 XZ Ag   4  -0.00000     0.00000    -0.00000     0.00000    -0.00000    -0.00000
 YZ Ag   4   0.00000    -0.03751    -0.00000     0.04499    -0.00000     0.00000


 Reference determinate nber   1 is ALPHA 1 -  22
 SINGLE excitations FROM orbs   1 to  22 INTO orbs  23 to  36
 

 CI excitations=  309:        =309
 The lowest  309 spin-adapted configurations of multiplicity=  1
     sym   eV   cm**-1 -dets- dipole oscilator X FRAG ....Excitations named from first reference determinate
                       tot  #  Debye  strength
 
   1      0.000      0.  1  1  0.0000 0.000000 0  0 (     )->       )
   2      2.127  17157.  1  1  0.0000 1.722078 1  1 (  22 )->  23   )
   3      3.546  28602.  1  1  0.0000 0.000000 1  1 (  22 )->  24   )
   4      4.458  35955.  1  1  0.0000 0.013607 1  1 (  22 )->  25   )
   5      5.124  41326.  1  1  0.0000 0.000000 1  1 (  22 )->  26   )
   6      5.126  41342.  1  1  0.0000 0.000000 1  1 (  22 )->  27   )
   7      5.703  45994.  1  1  0.0000 1.034169 1  1 (  22 )->  28   )
   8      5.704  46006.  1  1  0.0000 1.034166 1  1 (  22 )->  29   )
   9      5.767  46513.  1  1  0.0000 0.000000 1  1 (  22 )->  30   )
  10      6.257  50470.  1  1  0.0000 0.000000 1  1 (  22 )->  31   )
  11      6.259  50483.  1  1  0.0000 0.000000 1  1 (  22 )->  32   )
  12      6.623  53415.  1  1  0.0000 0.091059 1  1 (  22 )->  33   )
  13      6.625  53432.  1  1  0.0000 0.091363 1  1 (  22 )->  34   )
  14      7.399  59680.  1  1  0.0000 0.307683 1  1 (  22 )->  35   )
  15      8.488  68463.  1  1  0.0000 0.000000 1  1 (  22 )->  36   )
  16      2.827  22805.  1  1  0.0000 0.000000 1  1 (  21 )->  23   )
  17      4.228  34098.  1  1  0.0000 0.120423 1  1 (  21 )->  24   )
  18      5.294  42698.  1  1  0.0000 0.000000 1  1 (  21 )->  25   )
  19      6.036  48688.  1  1  0.0000 1.245063 1  1 (  21 )->  26   )
  20      6.039  48704.  1  1  0.0000 1.245277 1  1 (  21 )->  27   )
  21      6.743  54389.  1  1  0.0000 0.000000 1  1 (  21 )->  28   )
  22      6.745  54402.  1  1  0.0000 0.000000 1  1 (  21 )->  29   )
  23      6.847  55227.  1  1  0.0000 0.006092 1  1 (  21 )->  30   )
  24      7.190  57988.  1  1  0.0000 0.042595 1  1 (  21 )->  31   )
  25      7.191  57999.  1  1  0.0000 0.042890 1  1 (  21 )->  32   )
  26      7.424  59877.  1  1  0.0000 0.000000 1  1 (  21 )->  33   )
  27      7.426  59892.  1  1  0.0000 0.000000 1  1 (  21 )->  34   )
  28      8.186  66027.  1  1  0.0000 0.000000 1  1 (  21 )->  35   )
  29      9.249  74597.  1  1  0.0000 0.267280 1  1 (  21 )->  36   )
  30      4.618  37249.  1  1  0.0000 0.064279 1  1 (  20 )->  23   )
  31      6.177  49819.  1  1  0.0000 0.000000 1  1 (  20 )->  24   )
  32      7.748  62491.  1  1  0.0000 0.166459 1  1 (  20 )->  25   )
  33      8.407  67808.  1  1  0.0000 0.000000 1  1 (  20 )->  26   )
  34      8.404  67780.  1  1  0.0000 0.000000 1  1 (  20 )->  27   )
  35      9.435  76098.  1  1  0.0000 0.004519 1  1 (  20 )->  28   )
  36      9.435  76101.  1  1  0.0000 0.004513 1  1 (  20 )->  29   )
  37      9.205  74245.  1  1  0.0000 0.000000 1  1 (  20 )->  30   )
  38      9.620  77593.  1  1  0.0000 0.000000 1  1 (  20 )->  31   )
  39      9.618  77572.  1  1  0.0000 0.000000 1  1 (  20 )->  32   )
  40      9.531  76870.  1  1  0.0000 0.117010 1  1 (  20 )->  33   )
  41      9.525  76821.  1  1  0.0000 0.117344 1  1 (  20 )->  34   )
  42     10.512  84789.  1  1  0.0000 0.000181 1  1 (  20 )->  35   )
  43     11.329  91374.  1  1  0.0000 0.000000 1  1 (  20 )->  36   )
  44      5.178  41765.  1  1  0.0000 0.000000 1  1 (  19 )->  23   )
  45      6.762  54539.  1  1  0.0000 0.001045 1  1 (  19 )->  24   )
  46      8.301  66951.  1  1  0.0000 0.000000 1  1 (  19 )->  25   )
  47      8.969  72344.  1  1  0.0000 0.000000 1  1 (  19 )->  26   )
  48      9.026  72802.  1  1  0.0000 0.458139 1  1 (  19 )->  27   )
  49     10.071  81228.  1  1  0.0000 0.000000 1  1 (  19 )->  28   )
  50     10.146  81834.  1  1  0.0000 0.000000 1  1 (  19 )->  29   )
  51      9.751  78650.  1  1  0.0000 0.000425 1  1 (  19 )->  30   )
  52     10.198  82254.  1  1  0.0000 0.000000 1  1 (  19 )->  31   )
  53     10.274  82867.  1  1  0.0000 0.011827 1  1 (  19 )->  32   )
  54     10.035  80934.  1  1  0.0000 0.000000 1  1 (  19 )->  33   )
  55     10.057  81114.  1  1  0.0000 0.000000 1  1 (  19 )->  34   )
  56     11.066  89257.  1  1  0.0000 0.000000 1  1 (  19 )->  35   )
  57     11.864  95693.  1  1  0.0000 0.055321 1  1 (  19 )->  36   )
  58      5.189  41854.  1  1  0.0000 0.000000 1  1 (  18 )->  23   )
  59      6.772  54621.  1  1  0.0000 0.001061 1  1 (  18 )->  24   )
  60      8.312  67042.  1  1  0.0000 0.000000 1  1 (  18 )->  25   )
  61      9.035  72875.  1  1  0.0000 0.458376 1  1 (  18 )->  26   )
  62      8.984  72462.  1  1  0.0000 0.000000 1  1 (  18 )->  27   )
  63     10.154  81897.  1  1  0.0000 0.000000 1  1 (  18 )->  28   )
  64     10.083  81322.  1  1  0.0000 0.000000 1  1 (  18 )->  29   )
  65      9.758  78705.  1  1  0.0000 0.000436 1  1 (  18 )->  30   )
  66     10.284  82949.  1  1  0.0000 0.011756 1  1 (  18 )->  31   )
  67     10.211  82354.  1  1  0.0000 0.000000 1  1 (  18 )->  32   )
  68     10.069  81208.  1  1  0.0000 0.000000 1  1 (  18 )->  33   )
  69     10.050  81058.  1  1  0.0000 0.000000 1  1 (  18 )->  34   )
  70     11.075  89329.  1  1  0.0000 0.000000 1  1 (  18 )->  35   )
  71     11.877  95796.  1  1  0.0000 0.055419 1  1 (  18 )->  36   )
  72      5.675  45774.  1  1  0.0000 0.000000 1  1 (  17 )->  23   )
  73      7.431  59934.  1  1  0.0000 0.045729 1  1 (  17 )->  24   )
  74      8.989  72503.  1  1  0.0000 0.000000 1  1 (  17 )->  25   )
  75      9.715  78353.  1  1  0.0000 0.004956 1  1 (  17 )->  26   )
  76      9.711  78325.  1  1  0.0000 0.004666 1  1 (  17 )->  27   )
  77     10.147  81844.  1  1  0.0000 0.000000 1  1 (  17 )->  28   )
  78     10.142  81802.  1  1  0.0000 0.000000 1  1 (  17 )->  29   )
  79     10.287  82969.  1  1  0.0000 0.044010 1  1 (  17 )->  30   )
  80     10.824  87298.  1  1  0.0000 0.049528 1  1 (  17 )->  31   )
  81     10.821  87275.  1  1  0.0000 0.050747 1  1 (  17 )->  32   )
  82     11.336  91433.  1  1  0.0000 0.000000 1  1 (  17 )->  33   )
  83     11.335  91422.  1  1  0.0000 0.000000 1  1 (  17 )->  34   )
  84     11.636  93855.  1  1  0.0000 0.000000 1  1 (  17 )->  35   )
  85     13.024 105047.  1  1  0.0000 0.000117 1  1 (  17 )->  36   )
  86      5.641  45501.  1  1  0.0000 0.000000 1  1 (  16 )->  23   )
  87      7.173  57851.  1  1  0.0000 0.000000 1  1 (  16 )->  24   )
  88      8.702  70185.  1  1  0.0000 0.000000 1  1 (  16 )->  25   )
  89      9.352  75426.  1  1  0.0000 0.000000 1  1 (  16 )->  26   )
  90      9.361  75505.  1  1  0.0000 0.000000 1  1 (  16 )->  27   )
  91     10.702  86317.  1  1  0.0000 0.003962 1  1 (  16 )->  28   )
  92     10.703  86326.  1  1  0.0000 0.003987 1  1 (  16 )->  29   )
  93     10.230  82515.  1  1  0.0000 0.000000 1  1 (  16 )->  30   )
  94     10.624  85691.  1  1  0.0000 0.000000 1  1 (  16 )->  31   )
  95     10.628  85721.  1  1  0.0000 0.000000 1  1 (  16 )->  32   )
  96     10.209  82341.  1  1  0.0000 0.054749 1  1 (  16 )->  33   )
  97     10.221  82438.  1  1  0.0000 0.054394 1  1 (  16 )->  34   )
  98     11.505  92792.  1  1  0.0000 0.000000 1  1 (  16 )->  35   )
  99     12.085  97470.  1  1  0.0000 0.000000 1  1 (  16 )->  36   )
 100      5.648  45557.  1  1  0.0000 0.000000 1  1 (  15 )->  23   )
 101      7.180  57911.  1  1  0.0000 0.000000 1  1 (  15 )->  24   )
 102      8.705  70209.  1  1  0.0000 0.000000 1  1 (  15 )->  25   )
 103      9.367  75554.  1  1  0.0000 0.000000 1  1 (  15 )->  26   )
 104      9.371  75579.  1  1  0.0000 0.000000 1  1 (  15 )->  27   )
 105     10.712  86402.  1  1  0.0000 0.003963 1  1 (  15 )->  28   )
 106     10.715  86419.  1  1  0.0000 0.003951 1  1 (  15 )->  29   )
 107     10.232  82530.  1  1  0.0000 0.000000 1  1 (  15 )->  30   )
 108     10.639  85810.  1  1  0.0000 0.000000 1  1 (  15 )->  31   )
 109     10.640  85815.  1  1  0.0000 0.000000 1  1 (  15 )->  32   )
 110     10.229  82503.  1  1  0.0000 0.054661 1  1 (  15 )->  33   )
 111     10.231  82517.  1  1  0.0000 0.054682 1  1 (  15 )->  34   )
 112     11.507  92808.  1  1  0.0000 0.000000 1  1 (  15 )->  35   )
 113     12.084  97466.  1  1  0.0000 0.000000 1  1 (  15 )->  36   )
 114      5.745  46338.  1  1  0.0000 0.000000 1  1 (  14 )->  23   )
 115      7.279  58706.  1  1  0.0000 0.000003 1  1 (  14 )->  24   )
 116      8.808  71042.  1  1  0.0000 0.000000 1  1 (  14 )->  25   )
 117      9.459  76292.  1  1  0.0000 0.021784 1  1 (  14 )->  26   )
 118      9.469  76370.  1  1  0.0000 0.022004 1  1 (  14 )->  27   )
 119     10.800  87104.  1  1  0.0000 0.000000 1  1 (  14 )->  28   )
 120     10.801  87114.  1  1  0.0000 0.000000 1  1 (  14 )->  29   )
 121     10.334  83349.  1  1  0.0000 0.000002 1  1 (  14 )->  30   )
 122     10.730  86543.  1  1  0.0000 0.036831 1  1 (  14 )->  31   )
 123     10.734  86573.  1  1  0.0000 0.035605 1  1 (  14 )->  32   )
 124     10.325  83273.  1  1  0.0000 0.000000 1  1 (  14 )->  33   )
 125     10.336  83369.  1  1  0.0000 0.000000 1  1 (  14 )->  34   )
 126     11.610  93638.  1  1  0.0000 0.000000 1  1 (  14 )->  35   )
 127     12.198  98382.  1  1  0.0000 0.000000 1  1 (  14 )->  36   )
 128      5.752  46395.  1  1  0.0000 0.000000 1  1 (  13 )->  23   )
 129      7.286  58766.  1  1  0.0000 0.000000 1  1 (  13 )->  24   )
 130      8.811  71065.  1  1  0.0000 0.000000 1  1 (  13 )->  25   )
 131      9.475  76420.  1  1  0.0000 0.021875 1  1 (  13 )->  26   )
 132      9.478  76445.  1  1  0.0000 0.021852 1  1 (  13 )->  27   )
 133     10.810  87190.  1  1  0.0000 0.000000 1  1 (  13 )->  28   )
 134     10.812  87206.  1  1  0.0000 0.000000 1  1 (  13 )->  29   )
 135     10.336  83364.  1  1  0.0000 0.000000 1  1 (  13 )->  30   )
 136     10.745  86662.  1  1  0.0000 0.036313 1  1 (  13 )->  31   )
 137     10.745  86668.  1  1  0.0000 0.036348 1  1 (  13 )->  32   )
 138     10.345  83436.  1  1  0.0000 0.000000 1  1 (  13 )->  33   )
 139     10.346  83449.  1  1  0.0000 0.000000 1  1 (  13 )->  34   )
 140     11.612  93653.  1  1  0.0000 0.000000 1  1 (  13 )->  35   )
 141     12.197  98380.  1  1  0.0000 0.000000 1  1 (  13 )->  36   )
 142      5.890  47503.  1  1  0.0000 0.025953 1  1 (  12 )->  23   )
 143      7.575  61099.  1  1  0.0000 0.000000 1  1 (  12 )->  24   )
 144      9.119  73554.  1  1  0.0000 0.000684 1  1 (  12 )->  25   )
 145      9.845  79403.  1  1  0.0000 0.000000 1  1 (  12 )->  26   )
 146      9.899  79841.  1  1  0.0000 0.000000 1  1 (  12 )->  27   )
 147     10.495  84647.  1  1  0.0000 0.000000 1  1 (  12 )->  28   )
 148     10.566  85220.  1  1  0.0000 0.133067 1  1 (  12 )->  29   )
 149     10.449  84277.  1  1  0.0000 0.000000 1  1 (  12 )->  30   )
 150     10.993  88666.  1  1  0.0000 0.000000 1  1 (  12 )->  31   )
 151     11.013  88824.  1  1  0.0000 0.000000 1  1 (  12 )->  32   )
 152     11.286  91027.  1  1  0.0000 0.000000 1  1 (  12 )->  33   )
 153     11.351  91555.  1  1  0.0000 0.000050 1  1 (  12 )->  34   )
 154     11.827  95391.  1  1  0.0000 0.033325 1  1 (  12 )->  35   )
 155     12.998 104838.  1  1  0.0000 0.000000 1  1 (  12 )->  36   )
 156      5.899  47578.  1  1  0.0000 0.025834 1  1 (  11 )->  23   )
 157      7.585  61173.  1  1  0.0000 0.000000 1  1 (  11 )->  24   )
 158      9.130  73635.  1  1  0.0000 0.000732 1  1 (  11 )->  25   )
 159      9.908  79917.  1  1  0.0000 0.000000 1  1 (  11 )->  26   )
 160      9.858  79513.  1  1  0.0000 0.000000 1  1 (  11 )->  27   )
 161     10.569  85246.  1  1  0.0000 0.133250 1  1 (  11 )->  28   )
 162     10.502  84701.  1  1  0.0000 0.000000 1  1 (  11 )->  29   )
 163     10.456  84330.  1  1  0.0000 0.000000 1  1 (  11 )->  30   )
 164     11.022  88895.  1  1  0.0000 0.000000 1  1 (  11 )->  31   )
 165     11.005  88764.  1  1  0.0000 0.000000 1  1 (  11 )->  32   )
 166     11.366  91673.  1  1  0.0000 0.000063 1  1 (  11 )->  33   )
 167     11.305  91181.  1  1  0.0000 0.000000 1  1 (  11 )->  34   )
 168     11.835  95457.  1  1  0.0000 0.033426 1  1 (  11 )->  35   )
 169     13.013 104957.  1  1  0.0000 0.000000 1  1 (  11 )->  36   )
 170      6.201  50015.  1  1  0.0000 0.000000 1  1 (  10 )->  23   )
 171      8.040  64845.  1  1  0.0000 0.000000 1  1 (  10 )->  24   )
 172      9.596  77394.  1  1  0.0000 0.000000 1  1 (  10 )->  25   )
 173     10.418  84026.  1  1  0.0000 0.000000 1  1 (  10 )->  26   )
 174     10.424  84076.  1  1  0.0000 0.000000 1  1 (  10 )->  27   )
 175     10.376  83685.  1  1  0.0000 0.055230 1  1 (  10 )->  28   )
 176     10.387  83780.  1  1  0.0000 0.055334 1  1 (  10 )->  29   )
 177     10.731  86551.  1  1  0.0000 0.000000 1  1 (  10 )->  30   )
 178     11.444  92299.  1  1  0.0000 0.000000 1  1 (  10 )->  31   )
 179     11.452  92369.  1  1  0.0000 0.000000 1  1 (  10 )->  32   )
 180     12.436 100307.  1  1  0.0000 0.004862 1  1 (  10 )->  33   )
 181     12.440 100335.  1  1  0.0000 0.004856 1  1 (  10 )->  34   )
 182     12.211  98485.  1  1  0.0000 0.000000 1  1 (  10 )->  35   )
 183     13.964 112628.  1  1  0.0000 0.000000 1  1 (  10 )->  36   )
 184      6.202  50023.  1  1  0.0000 0.000000 1  1 (   9 )->  23   )
 185      8.039  64836.  1  1  0.0000 0.000000 1  1 (   9 )->  24   )
 186      9.594  77383.  1  1  0.0000 0.000000 1  1 (   9 )->  25   )
 187     10.415  84006.  1  1  0.0000 0.035733 1  1 (   9 )->  26   )
 188     10.422  84056.  1  1  0.0000 0.035770 1  1 (   9 )->  27   )
 189     10.383  83743.  1  1  0.0000 0.000000 1  1 (   9 )->  28   )
 190     10.395  83838.  1  1  0.0000 0.000000 1  1 (   9 )->  29   )
 191     10.732  86563.  1  1  0.0000 0.000000 1  1 (   9 )->  30   )
 192     11.443  92293.  1  1  0.0000 0.026463 1  1 (   9 )->  31   )
 193     11.452  92363.  1  1  0.0000 0.026458 1  1 (   9 )->  32   )
 194     12.426 100222.  1  1  0.0000 0.000000 1  1 (   9 )->  33   )
 195     12.429 100251.  1  1  0.0000 0.000000 1  1 (   9 )->  34   )
 196     12.211  98485.  1  1  0.0000 0.000000 1  1 (   9 )->  35   )
 197     13.956 112563.  1  1  0.0000 0.000000 1  1 (   9 )->  36   )
 198      6.207  50061.  1  1  0.0000 0.000000 1  1 (   8 )->  23   )
 199      8.042  64866.  1  1  0.0000 0.000000 1  1 (   8 )->  24   )
 200      9.594  77385.  1  1  0.0000 0.000000 1  1 (   8 )->  25   )
 201     10.429  84119.  1  1  0.0000 0.000000 1  1 (   8 )->  26   )
 202     10.431  84129.  1  1  0.0000 0.000000 1  1 (   8 )->  27   )
 203     10.392  83820.  1  1  0.0000 0.055355 1  1 (   8 )->  28   )
 204     10.393  83829.  1  1  0.0000 0.055372 1  1 (   8 )->  29   )
 205     10.729  86534.  1  1  0.0000 0.000000 1  1 (   8 )->  30   )
 206     11.456  92400.  1  1  0.0000 0.000000 1  1 (   8 )->  31   )
 207     11.459  92421.  1  1  0.0000 0.000000 1  1 (   8 )->  32   )
 208     12.444 100366.  1  1  0.0000 0.004843 1  1 (   8 )->  33   )
 209     12.446 100387.  1  1  0.0000 0.004829 1  1 (   8 )->  34   )
 210     12.209  98469.  1  1  0.0000 0.000000 1  1 (   8 )->  35   )
 211     13.966 112645.  1  1  0.0000 0.000000 1  1 (   8 )->  36   )
 212      6.208  50070.  1  1  0.0000 0.000000 1  1 (   7 )->  23   )
 213      8.041  64857.  1  1  0.0000 0.000000 1  1 (   7 )->  24   )
 214      9.593  77375.  1  1  0.0000 0.000000 1  1 (   7 )->  25   )
 215     10.427  84099.  1  1  0.0000 0.035830 1  1 (   7 )->  26   )
 216     10.428  84109.  1  1  0.0000 0.035867 1  1 (   7 )->  27   )
 217     10.400  83879.  1  1  0.0000 0.000000 1  1 (   7 )->  28   )
 218     10.401  83888.  1  1  0.0000 0.000000 1  1 (   7 )->  29   )
 219     10.730  86546.  1  1  0.0000 0.000000 1  1 (   7 )->  30   )
 220     11.455  92394.  1  1  0.0000 0.026426 1  1 (   7 )->  31   )
 221     11.458  92415.  1  1  0.0000 0.026395 1  1 (   7 )->  32   )
 222     12.433 100280.  1  1  0.0000 0.000000 1  1 (   7 )->  33   )
 223     12.436 100301.  1  1  0.0000 0.000000 1  1 (   7 )->  34   )
 224     12.209  98469.  1  1  0.0000 0.000000 1  1 (   7 )->  35   )
 225     13.958 112577.  1  1  0.0000 0.000000 1  1 (   7 )->  36   )
 226      6.448  52006.  1  1  0.0000 0.000000 1  1 (   6 )->  23   )
 227      8.233  66401.  1  1  0.0000 0.018742 1  1 (   6 )->  24   )
 228      9.786  78926.  1  1  0.0000 0.000000 1  1 (   6 )->  25   )
 229     10.567  85227.  1  1  0.0000 0.000000 1  1 (   6 )->  26   )
 230     10.599  85484.  1  1  0.0000 0.011157 1  1 (   6 )->  27   )
 231     10.768  86853.  1  1  0.0000 0.000000 1  1 (   6 )->  28   )
 232     10.792  87040.  1  1  0.0000 0.000000 1  1 (   6 )->  29   )
 233     10.993  88665.  1  1  0.0000 0.025296 1  1 (   6 )->  30   )
 234     11.636  93849.  1  1  0.0000 0.000000 1  1 (   6 )->  31   )
 235     11.706  94414.  1  1  0.0000 0.000694 1  1 (   6 )->  32   )
 236     12.382  99869.  1  1  0.0000 0.000000 1  1 (   6 )->  33   )
 237     12.427 100231.  1  1  0.0000 0.000000 1  1 (   6 )->  34   )
 238     12.435 100293.  1  1  0.0000 0.000000 1  1 (   6 )->  35   )
 239     13.978 112740.  1  1  0.0000 0.000980 1  1 (   6 )->  36   )
 240      6.455  52062.  1  1  0.0000 0.000000 1  1 (   5 )->  23   )
 241      8.238  66441.  1  1  0.0000 0.018732 1  1 (   5 )->  24   )
 242      9.791  78970.  1  1  0.0000 0.000000 1  1 (   5 )->  25   )
 243     10.603  85522.  1  1  0.0000 0.010889 1  1 (   5 )->  26   )
 244     10.575  85290.  1  1  0.0000 0.000000 1  1 (   5 )->  27   )
 245     10.799  87097.  1  1  0.0000 0.000000 1  1 (   5 )->  28   )
 246     10.778  86931.  1  1  0.0000 0.000000 1  1 (   5 )->  29   )
 247     10.999  88715.  1  1  0.0000 0.025306 1  1 (   5 )->  30   )
 248     11.710  94449.  1  1  0.0000 0.000715 1  1 (   5 )->  31   )
 249     11.645  93921.  1  1  0.0000 0.000000 1  1 (   5 )->  32   )
 250     12.429 100248.  1  1  0.0000 0.000000 1  1 (   5 )->  33   )
 251     12.389  99925.  1  1  0.0000 0.000000 1  1 (   5 )->  34   )
 252     12.440 100337.  1  1  0.0000 0.000000 1  1 (   5 )->  35   )
 253     13.982 112775.  1  1  0.0000 0.000950 1  1 (   5 )->  36   )
 254      6.551  52836.  1  1  0.0000 0.009266 1  1 (   4 )->  23   )
 255      8.233  66405.  1  1  0.0000 0.000000 1  1 (   4 )->  24   )
 256      9.781  78886.  1  1  0.0000 0.042937 1  1 (   4 )->  25   )
 257     10.505  84727.  1  1  0.0000 0.000000 1  1 (   4 )->  26   )
 258     10.522  84866.  1  1  0.0000 0.000000 1  1 (   4 )->  27   )
 259     11.162  90029.  1  1  0.0000 0.000000 1  1 (   4 )->  28   )
 260     11.205  90375.  1  1  0.0000 0.003823 1  1 (   4 )->  29   )
 261     11.111  89613.  1  1  0.0000 0.000000 1  1 (   4 )->  30   )
 262     11.655  94002.  1  1  0.0000 0.000000 1  1 (   4 )->  31   )
 263     11.726  94575.  1  1  0.0000 0.000000 1  1 (   4 )->  32   )
 264     11.940  96304.  1  1  0.0000 0.000000 1  1 (   4 )->  33   )
 265     11.989  96702.  1  1  0.0000 0.034987 1  1 (   4 )->  34   )
 266     12.489 100727.  1  1  0.0000 0.001577 1  1 (   4 )->  35   )
 267     13.655 110132.  1  1  0.0000 0.000000 1  1 (   4 )->  36   )
 268      6.560  52907.  1  1  0.0000 0.009416 1  1 (   3 )->  23   )
 269      8.239  66453.  1  1  0.0000 0.000000 1  1 (   3 )->  24   )
 270      9.787  78940.  1  1  0.0000 0.042924 1  1 (   3 )->  25   )
 271     10.526  84901.  1  1  0.0000 0.000000 1  1 (   3 )->  26   )
 272     10.514  84797.  1  1  0.0000 0.000000 1  1 (   3 )->  27   )
 273     11.217  90469.  1  1  0.0000 0.003637 1  1 (   3 )->  28   )
 274     11.177  90147.  1  1  0.0000 0.000000 1  1 (   3 )->  29   )
 275     11.117  89665.  1  1  0.0000 0.000000 1  1 (   3 )->  30   )
 276     11.732  94623.  1  1  0.0000 0.000000 1  1 (   3 )->  31   )
 277     11.664  94077.  1  1  0.0000 0.000000 1  1 (   3 )->  32   )
 278     11.989  96694.  1  1  0.0000 0.034860 1  1 (   3 )->  33   )
 279     11.943  96331.  1  1  0.0000 0.000000 1  1 (   3 )->  34   )
 280     12.495 100778.  1  1  0.0000 0.001509 1  1 (   3 )->  35   )
 281     13.657 110150.  1  1  0.0000 0.000000 1  1 (   3 )->  36   )
 282      6.786  54735.  1  1  0.0000 0.028876 1  1 (   2 )->  23   )
 283      8.598  69347.  1  1  0.0000 0.000000 1  1 (   2 )->  24   )
 284     10.125  81667.  1  1  0.0000 0.007974 1  1 (   2 )->  25   )
 285     10.879  87741.  1  1  0.0000 0.000000 1  1 (   2 )->  26   )
 286     10.875  87711.  1  1  0.0000 0.000000 1  1 (   2 )->  27   )
 287     11.147  89905.  1  1  0.0000 0.005552 1  1 (   2 )->  28   )
 288     11.140  89851.  1  1  0.0000 0.005508 1  1 (   2 )->  29   )
 289     11.340  91464.  1  1  0.0000 0.000000 1  1 (   2 )->  30   )
 290     11.959  96454.  1  1  0.0000 0.000000 1  1 (   2 )->  31   )
 291     11.956  96428.  1  1  0.0000 0.000000 1  1 (   2 )->  32   )
 292     12.638 101931.  1  1  0.0000 0.000163 1  1 (   2 )->  33   )
 293     12.637 101928.  1  1  0.0000 0.000172 1  1 (   2 )->  34   )
 294     12.837 103539.  1  1  0.0000 0.004595 1  1 (   2 )->  35   )
 295     14.292 115275.  1  1  0.0000 0.000000 1  1 (   2 )->  36   )
 296      7.441  60020.  1  1  0.0000 0.000000 1  1 (   1 )->  23   )
 297      9.130  73638.  1  1  0.0000 0.004709 1  1 (   1 )->  24   )
 298     10.608  85563.  1  1  0.0000 0.000000 1  1 (   1 )->  25   )
 299     11.315  91259.  1  1  0.0000 0.003994 1  1 (   1 )->  26   )
 300     11.311  91230.  1  1  0.0000 0.004036 1  1 (   1 )->  27   )
 301     12.177  98218.  1  1  0.0000 0.000000 1  1 (   1 )->  28   )
 302     12.176  98208.  1  1  0.0000 0.000000 1  1 (   1 )->  29   )
 303     12.121  97761.  1  1  0.0000 0.001328 1  1 (   1 )->  30   )
 304     12.499 100811.  1  1  0.0000 0.001099 1  1 (   1 )->  31   )
 305     12.496 100789.  1  1  0.0000 0.001119 1  1 (   1 )->  32   )
 306     12.576 101436.  1  1  0.0000 0.000000 1  1 (   1 )->  33   )
 307     12.571 101396.  1  1  0.0000 0.000000 1  1 (   1 )->  34   )
 308     13.439 108395.  1  1  0.0000 0.000000 1  1 (   1 )->  35   )
 309     14.384 116015.  1  1  0.0000 0.001482 1  1 (   1 )->  36   )

 Depression of ground-state after CI=          0. cm**-1 Energy= -4623.8501307 eV
 Dipole moment= -0.000000  0.000000 -0.000000 tot=  0.000000 Debyes


  CI trans.  energy frequency wavelength oscillator ---------polarization---------    dipole   ------components----- 
 st.  symm.    eV      cm-1       nm      strength       x          y         z       moment     x       y       z 

   2      1.9429831    15671.    638.11  1.538285   0.000000  -1.000000  -0.000000  0.000000  -0.000   0.000  -0.000
   3      2.6337438    21243.    470.75  0.000000                                   0.000000  -0.000   0.000  -0.000
   4      3.3051539    26658.    375.12  0.000000                                   0.000000   0.000   0.000  -0.000
   5      3.8905185    31379.    318.68  0.071186   0.000000  -1.000000  -0.000000  0.000000  -0.000   0.000   0.000
   6      4.1224822    33250.    300.75  0.029207  -0.000000   1.000000  -0.000000  0.000000  -0.000   0.000  -0.000
   7      4.5232467    36483.    274.10  0.000003  -0.000000   1.000000  -0.000000  0.000000  -0.000   0.000  -0.000
   8      4.6491810    37498.    266.68  0.000000                                   0.000000  -0.000   0.000  -0.000
   9      4.6589558    37577.    266.12  0.000000                                   0.000000  -0.000   0.000  -0.000
  10      4.6666103    37639.    265.68  0.000000                                   0.000000  -0.000   0.000  -0.000
  11      4.8934802    39469.    253.37  0.000000                                   0.000000  -0.000   0.000  -0.000
  12      4.8947405    39479.    253.30  0.000000                                   0.000000  -0.000   0.000  -0.000
  13      5.0019553    40344.    247.87  0.000000                                   0.000000  -0.000  -0.000  -0.000
  14      5.0029641    40352.    247.82  0.000418   0.000000  -0.000000  -1.000000  0.000000  -0.000   0.000  -0.000
  15      5.0099274    40408.    247.48  0.000865   1.000000  -0.000000   0.000000  0.000000  -0.000   0.000  -0.000
  16      5.0704740    40896.    244.52  0.000003  -0.000000   1.000000   0.000000  0.000000  -0.000   0.000  -0.000
  17      5.0741064    40926.    244.35  0.000000                                   0.000000  -0.000   0.000  -0.000
  18      5.1297630    41374.    241.70  0.000000                                   0.000000   0.000   0.000  -0.000
  19      5.1331516    41402.    241.54  0.000000                                   0.000000   0.000   0.000  -0.000
  20      5.1962422    41911.    238.60  2.039002  -1.000000   0.000000  -0.000000  0.000000   0.000   0.000  -0.000
  21      5.1969800    41917.    238.57  2.039283   0.000000  -0.000000  -1.000000  0.000000  -0.000   0.000  -0.000
  22      5.2155000    42066.    237.72  0.000017  -0.000000  -1.000000  -0.000000  0.000000  -0.000   0.000  -0.000
  23      5.2175586    42083.    237.63  0.000000                                   0.000000   0.000   0.000  -0.000
  24      5.2292917    42177.    237.09  0.000000                                   0.000000  -0.000  -0.000  -0.000
  25      5.2316669    42196.    236.99  0.000000                                   0.000000  -0.000  -0.000  -0.000
  26      5.4791965    44193.    226.28  0.000000                                   0.000000  -0.000   0.000  -0.000
  27      5.4861709    44249.    225.99  0.000000                                   0.000000  -0.000   0.000  -0.000
  28      5.6902176    45895.    217.89  0.016914  -0.000000   0.000000   1.000000  0.000000  -0.000   0.000  -0.000
  29      5.6994407    45969.    217.54  0.017244  -1.000000   0.000000  -0.000000  0.000000  -0.000   0.000  -0.000
  30      5.7167861    46109.    216.88  0.387075   0.000000   1.000000  -0.000000  0.000000  -0.000   0.000  -0.000
  31      5.9063425    47638.    209.92  0.000000                                   0.000000   0.000   0.000  -0.000
  32      5.9070975    47644.    209.89  0.000000                                   0.000000  -0.000   0.000   0.000
  33      5.9815025    48244.    207.28  0.000000                                   0.000000  -0.000   0.000  -0.000
  34      6.0169149    48530.    206.06  0.164647   0.000000   0.000000  -1.000000  0.000000  -0.000   0.000   0.000
  35      6.0169475    48530.    206.06  0.164811   1.000000   0.000000   0.000000  0.000000   0.000   0.000  -0.000
  36      6.3979014    51603.    193.79  0.000000                                   0.000000  -0.000   0.000  -0.000
  37      6.5488143    52820.    189.32  0.000000                                   0.000000  -0.000   0.000   0.000
  38      6.5974098    53212.    187.93  0.001247   1.000000   0.000000   0.000000  0.000000   0.000   0.000  -0.000
  39      6.5995442    53229.    187.87  0.001236   0.000000  -0.000000  -1.000000  0.000000  -0.000   0.000  -0.000
  40      6.7533825    54470.    183.59  0.002369  -0.000000   1.000000  -0.000000  0.000000  -0.000  -0.000   0.000
  41      6.8145754    54963.    181.94  0.014013  -0.000000   0.000000   1.000000  0.000000  -0.000   0.000  -0.000
  42      6.8242805    55042.    181.68  0.013937   1.000000   0.000000   0.000000  0.000000  -0.000   0.000  -0.000
  43      6.8290947    55081.    181.55  0.000000                                   0.000000   0.000  -0.000  -0.000
  44      6.8333598    55115.    181.44  0.000000                                   0.000000   0.000  -0.000  -0.000
  45      6.9625962    56157.    178.07  0.000000                                   0.000000  -0.000  -0.000  -0.000
  46      6.9631069    56161.    178.06  0.000000                                   0.000000   0.000  -0.000  -0.000
  47      7.0038979    56490.    177.02  0.000000                                   0.000000  -0.000   0.000  -0.000
  48      7.0043898    56494.    177.01  0.000005   0.000000  -1.000000   0.000000  0.000000   0.000   0.000  -0.000
  49      7.0920004    57201.    174.82  0.005622   0.000000   1.000000  -0.000000  0.000000  -0.000   0.000  -0.000
  50      7.1013736    57277.    174.59  0.000000                                   0.000000   0.000   0.000  -0.000
  51      7.1107470    57352.    174.36  0.000000                                   0.000000  -0.000   0.000  -0.000
  52      7.2642660    58590.    170.68  0.000000                                   0.000000  -0.000   0.000   0.000
  53      7.2750783    58678.    170.42  0.000000                                   0.000000   0.000   0.000   0.000
  54      7.4267319    59901.    166.94  0.000000                                   0.000000  -0.000   0.000  -0.000
  55      7.4377100    59989.    166.70  0.738209   0.000000   1.000000  -0.000000  0.000000  -0.000   0.000   0.000
  56      7.4400080    60008.    166.64  0.000000                                   0.000000  -0.000   0.000   0.000
  57      7.4713357    60261.    165.95  0.006914   0.000000   0.000000   1.000000  0.000000  -0.000   0.000  -0.000
  58      7.4792489    60324.    165.77  0.000098   0.000000  -1.000000   0.000000  0.000000  -0.000   0.000   0.000
  59      7.4886064    60400.    165.56  0.006744   1.000000   0.000000  -0.000000  0.000000   0.000   0.000   0.000
  60      7.5072094    60550.    165.15  0.000000                                   0.000025   0.000  -0.000  -0.000
  61      7.5073139    60551.    165.15  0.000000                                   0.000025  -0.000   0.000   0.000
  62      7.5175920    60634.    164.92  0.000000                                   0.000021  -0.000  -0.000  -0.000
  63      7.5177187    60635.    164.92  0.004103   0.000000   1.000000  -0.000000  0.000021  -0.000   0.000  -0.000
  64      7.5244282    60689.    164.78  0.218954   0.000000   1.000000  -0.000000  0.000000  -0.000   0.000  -0.000
  65      7.5675137    61036.    163.84  0.000000                                   0.000000   0.000   0.000  -0.000
  66      7.5939386    61249.    163.27  0.000000                                   0.000000   0.000   0.000   0.000
  67      7.5971574    61275.    163.20  0.000000                                   0.000000   0.000   0.000  -0.000
  68      7.5976790    61280.    163.19  0.061049   1.000000  -0.000000  -0.000000  0.000000   0.000   0.000   0.000
  69      7.5999464    61298.    163.14  0.000000                                   0.000000  -0.000   0.000  -0.000
  70      7.6024418    61318.    163.08  0.000000                                   0.000000  -0.000   0.000   0.000
  71      7.6077769    61361.    162.97  0.000000                                   0.000000  -0.000   0.000  -0.000
  72      7.6241401    61493.    162.62  0.062246   0.000000  -0.000000   1.000000  0.000000   0.000   0.000   0.000
  73      7.6301791    61542.    162.49  0.061532   0.000000  -0.000000  -1.000000  0.000000  -0.000   0.000  -0.000
  74      7.6326691    61562.    162.44  0.061328   1.000000  -0.000000   0.000000  0.000000  -0.000   0.000   0.000
  75      7.6471185    61678.    162.13  0.074350  -0.000000  -0.000000  -1.000000  0.000000  -0.000  -0.000  -0.000
  76      7.6481420    61687.    162.11  0.000000                                   0.000000  -0.000   0.000   0.000
  77      7.6531267    61727.    162.00  0.070520  -1.000000   0.000000  -0.000000  0.000000   0.000  -0.000   0.000
  78      7.6531341    61727.    162.00  0.007009   0.000000   0.000000  -1.000000  0.000000   0.000   0.000   0.000
  79      7.6553301    61745.    161.96  0.012824  -1.000000  -0.000000   0.000000  0.000000  -0.000   0.000  -0.000
  80      7.6558572    61749.    161.95  0.000000                                   0.000000  -0.000   0.000  -0.000
  81      7.6829136    61967.    161.38  0.000000                                   0.000000  -0.000   0.000   0.000
  82      7.6892960    62019.    161.24  0.000000                                   0.000000  -0.000   0.000  -0.000
  83      7.6981203    62090.    161.06  0.000000                                   0.000000   0.000  -0.000  -0.000
  84      7.7064948    62157.    160.88  0.000000                                   0.000000  -0.000  -0.000  -0.000
  85      7.7159179    62233.    160.69  0.115650  -1.000000   0.000000   0.000000  0.000000  -0.000   0.000  -0.000
  86      7.7251381    62308.    160.49  0.000000                                   0.000000   0.000  -0.000  -0.000
  87      7.7423036    62446.    160.14  0.115219   0.000000   0.000000  -1.000000  0.000000  -0.000   0.000  -0.000
  88      7.7455205    62472.    160.07  0.000000                                   0.000001  -0.000  -0.000  -0.000
  89      7.7459389    62475.    160.06  0.110029   0.000000  -0.000000   1.000000  0.000001  -0.000   0.000  -0.000
  90      7.7468633    62483.    160.04  0.000000                                   0.000001  -0.000  -0.000  -0.000
  91      7.7472895    62486.    160.04  0.110272   1.000000   0.000000  -0.000000  0.000001  -0.000   0.000   0.000
  92      7.7477307    62490.    160.03  0.000000                                   0.000000  -0.000  -0.000  -0.000
  93      7.7507979    62515.    159.96  0.000000                                   0.000000  -0.000   0.000   0.000
  94      7.7594747    62585.    159.78  0.000000                                   0.000000   0.000   0.000   0.000
  95      7.8025053    62932.    158.90  0.002822  -0.000000   1.000000   0.000000  0.000000   0.000   0.000   0.000
  96      7.8123977    63011.    158.70  0.030142   0.000000  -1.000000  -0.000000  0.000000   0.000   0.000  -0.000
  97      7.8145938    63029.    158.66  0.000000                                   0.000000  -0.000   0.000  -0.000
  98      7.8259759    63121.    158.43  0.000000                                   0.000000  -0.000   0.000  -0.000
  99      7.8328293    63176.    158.29  0.000000                                   0.000000  -0.000  -0.000   0.000
 100      7.8394206    63229.    158.15  0.000000                                   0.000000  -0.000  -0.000   0.000
 101      7.8637523    63426.    157.67  0.000000                                   0.000000  -0.000   0.000   0.000
 102      7.8668751    63451.    157.60  0.000000                                   0.000000  -0.000   0.000  -0.000
 103      7.8711407    63485.    157.52  0.000000                                   0.000000   0.000   0.000  -0.000
 104      7.9297798    63958.    156.35  0.014060  -0.000000  -1.000000   0.000000  0.000000   0.000   0.000   0.000
 105      7.9605002    64206.    155.75  0.008802  -0.000000  -0.000000  -1.000000  0.000000  -0.000   0.000   0.000
 106      7.9780505    64347.    155.41  0.006067  -1.000000   0.000000   0.000000  0.000000   0.000   0.000   0.000
 107      8.0645816    65045.    153.74  0.000000                                   0.000000  -0.000   0.000   0.000
 108      8.2973752    66923.    149.43  0.000610   0.000000   1.000000   0.000000  0.000000  -0.000   0.000  -0.000
 109      8.3859367    67637.    147.85  0.000000                                   0.000000  -0.000   0.000  -0.000
 110      8.3965176    67723.    147.66  0.000000                                   0.000000  -0.000   0.000  -0.000
 111      8.4593561    68229.    146.56  0.000001  -0.000000  -1.000000  -0.000000  0.000000  -0.000   0.000  -0.000
 112      8.4615833    68247.    146.53  0.000000                                   0.000000  -0.000   0.000  -0.000
 113      8.4927671    68499.    145.99  0.000000                                   0.000000   0.000  -0.000  -0.000
 114      8.4945762    68514.    145.96  0.000000                                   0.000000  -0.000  -0.000  -0.000
 115      8.6360776    69655.    143.57  0.005961  -0.000000  -0.000000  -1.000000  0.000000  -0.000  -0.000  -0.000
 116      8.6468842    69742.    143.39  0.005980  -1.000000   0.000000   0.000000  0.000000  -0.000  -0.000  -0.000
 117      8.7355281    70457.    141.93  0.000000                                   0.000000  -0.000   0.000  -0.000
 118      8.7727696    70757.    141.33  0.000000                                   0.000000  -0.000   0.000  -0.000
 119      9.3484998    75401.    132.62  0.107937  -0.000000   1.000000  -0.000000  0.000000  -0.000  -0.000  -0.000
 120      9.4453160    76182.    131.26  0.000000                                   0.000123  -0.000  -0.000  -0.000
 121      9.4453334    76182.    131.26  0.000001   0.000000  -1.000000   0.000000  0.000123  -0.000   0.000  -0.000
 122      9.4470554    76196.    131.24  0.000000                                   0.000142  -0.000  -0.000   0.000
 123      9.4470702    76196.    131.24  0.000000                                   0.000142  -0.000   0.000   0.000
 124      9.5669129    77163.    129.60  0.000000                                   0.000000  -0.000   0.000  -0.000
 125      9.5726461    77209.    129.52  0.000000                                   0.000000  -0.000   0.000   0.000
 126      9.5840130    77300.    129.37  0.004637  -0.000000   0.000000  -1.000000  0.000000  -0.000  -0.000  -0.000
 127      9.5898258    77347.    129.29  0.004676   1.000000  -0.000000  -0.000000  0.000000  -0.000  -0.000  -0.000
 128      9.8513752    79457.    125.85  0.000000                                   0.000000  -0.000   0.000  -0.000
 129      9.9497680    80250.    124.61  0.000000                                   0.000000  -0.000   0.000  -0.000
 130      9.9546467    80290.    124.55  0.000245  -0.000000   1.000000  -0.000000  0.000000  -0.000  -0.000  -0.000
 131     10.2419658    82607.    121.05  0.000157  -0.000000  -0.000000   1.000000  0.000000  -0.000   0.000  -0.000
 132     10.2488437    82663.    120.97  0.000161   1.000000   0.000000   0.000000  0.000000  -0.000   0.000   0.000
 133     10.3014170    83087.    120.36  0.001535  -1.000000   0.000000  -0.000000  0.000000   0.000   0.000  -0.000
 134     10.3056287    83121.    120.31  0.001572  -0.000000   0.000000   1.000000  0.000000  -0.000   0.000  -0.000
 135     10.4669014    84421.    118.45  0.000000                                   0.000000  -0.000  -0.000  -0.000
 136     10.4673382    84425.    118.45  0.000000                                   0.000000  -0.000  -0.000   0.000
 137     10.4755799    84491.    118.36  0.000000                                   0.000000  -0.000   0.000   0.000
 138     10.4795431    84523.    118.31  0.000000                                   0.000000  -0.000   0.000   0.000
 139     10.5452038    85053.    117.57  0.000006  -0.000000  -1.000000   0.000000  0.000000  -0.000  -0.000   0.000
 140     10.5488593    85083.    117.53  0.000000                                   0.000000  -0.000  -0.000  -0.000
 141     10.5648934    85212.    117.35  0.000000                                   0.000000   0.000   0.000  -0.000
 142     10.5793939    85329.    117.19  0.000000                                   0.000000  -0.000   0.000  -0.000
 143     10.5834552    85362.    117.15  0.000000                                   0.000000  -0.000   0.000  -0.000
 144     10.6329635    85761.    116.60  0.000000                                   0.000000  -0.000   0.000   0.000
 145     10.6426913    85839.    116.50  0.001802  -0.000000   0.000000   1.000000  0.000001   0.000  -0.000  -0.000
 146     10.6446191    85855.    116.48  0.001627   1.000000   0.000000   0.000000  0.000001   0.000  -0.000  -0.000
 147     10.6452061    85860.    116.47  0.001356  -0.000000  -1.000000   0.000000  0.000000  -0.000   0.000   0.000
 148     10.6479134    85881.    116.44  0.000000                                   0.000000   0.000   0.000  -0.000
 149     10.6487227    85888.    116.43  0.000000                                   0.000001  -0.000   0.000  -0.000
 150     10.6497817    85897.    116.42  0.000000                                   0.000001   0.000   0.000  -0.000
 151     10.6541476    85932.    116.37  0.001792   0.000000  -0.000000   1.000000  0.000001  -0.000  -0.000  -0.000
 152     10.6554138    85942.    116.36  0.001798  -1.000000  -0.000000   0.000000  0.000001  -0.000  -0.000  -0.000
 153     10.6595275    85975.    116.31  0.000000                                   0.000001  -0.000   0.000  -0.000
 154     10.6607751    85985.    116.30  0.000000                                   0.000001  -0.000   0.000   0.000
 155     10.6861820    86190.    116.02  0.000000                                   0.000000  -0.000   0.000  -0.000
 156     10.7001856    86303.    115.87  0.165162  -0.000000   1.000000   0.000000  0.000000  -0.000  -0.000  -0.000
 157     10.7352741    86586.    115.49  0.000000                                   0.000000  -0.000  -0.000   0.000
 158     10.7409398    86632.    115.43  0.000000                                   0.000000  -0.000  -0.000   0.000
 159     10.7980186    87092.    114.82  0.041729   1.000000  -0.000000  -0.000000  0.000000  -0.000   0.000  -0.000
 160     10.7989874    87100.    114.81  0.046089   0.000000  -0.000000   1.000000  0.000000  -0.000   0.000   0.000
 161     10.8079326    87172.    114.72  0.005242   1.000000   0.000000  -0.000000  0.000001   0.000   0.000  -0.000
 162     10.8092016    87182.    114.70  0.000840  -0.000000   0.000000  -1.000000  0.000001   0.000   0.000  -0.000
 163     10.8137521    87219.    114.65  0.000000                                   0.000000  -0.000   0.000   0.000
 164     10.8175027    87249.    114.61  0.002736   0.000000   0.000000   1.000000  0.000001   0.000   0.000  -0.000
 165     10.8197633    87267.    114.59  0.002733   1.000000  -0.000000  -0.000000  0.000001  -0.000   0.000  -0.000
 166     10.8219755    87285.    114.57  0.000000                                   0.000000  -0.000   0.000  -0.000
 167     10.8280511    87334.    114.50  0.000000                                   0.000000  -0.000   0.000  -0.000
 168     10.8326930    87372.    114.45  0.000000                                   0.000001   0.000  -0.000  -0.000
 169     10.8330993    87375.    114.45  0.000000                                   0.000001   0.000  -0.000  -0.000
 170     10.8423771    87450.    114.35  0.000000                                   0.000001   0.000  -0.000  -0.000
 171     10.8446567    87468.    114.33  0.000000                                   0.000001  -0.000  -0.000  -0.000
 172     10.8565433    87564.    114.20  0.000000                                   0.000018  -0.000   0.000  -0.000
 173     10.8566139    87565.    114.20  0.026744   0.000000   1.000000  -0.000000  0.000018   0.000  -0.000  -0.000
 174     10.9599861    88398.    113.12  0.000000                                   0.000000   0.000  -0.000  -0.000
 175     10.9764948    88532.    112.95  0.000000                                   0.000000   0.000  -0.000  -0.000
 176     10.9773720    88539.    112.94  0.000389   0.000000  -1.000000   0.000000  0.000000  -0.000  -0.000  -0.000
 177     10.9865207    88612.    112.85  0.014071   0.000000   1.000000  -0.000000  0.000000  -0.000  -0.000   0.000
 178     11.0871104    89424.    111.83  0.000000                                   0.000000   0.000  -0.000   0.000
 179     11.0905141    89451.    111.79  0.000000                                   0.000000  -0.000  -0.000  -0.000
 180     11.1892158    90247.    110.81  0.000000                                   0.000088  -0.000  -0.000  -0.000
 181     11.1893146    90248.    110.81  0.000025   0.000000  -1.000000   0.000000  0.000088  -0.000   0.000  -0.000
 182     11.1916468    90267.    110.78  0.000000                                   0.000087   0.000  -0.000   0.000
 183     11.1917467    90268.    110.78  0.000000                                   0.000087  -0.000   0.000  -0.000
 184     11.2262222    90546.    110.44  0.000000                                   0.000000  -0.000   0.000  -0.000
 185     11.2375345    90637.    110.33  0.000000                                   0.000000  -0.000   0.000   0.000
 186     11.2596210    90815.    110.11  0.000000                                   0.000580   0.000  -0.001  -0.000
 187     11.2596449    90815.    110.11  0.001859  -1.000000   0.000000  -0.000000  0.000580   0.000   0.001  -0.000
 188     11.2602322    90820.    110.11  0.000000                                   0.000564  -0.000  -0.001   0.000
 189     11.2602568    90820.    110.11  0.001853   0.000000   0.000000  -1.000000  0.000564  -0.000   0.001   0.000
 190     11.2658679    90866.    110.05  0.000000                                   0.000558   0.000  -0.001  -0.000
 191     11.2658927    90866.    110.05  0.001851   0.000000  -0.000000  -1.000000  0.000558  -0.000   0.001  -0.000
 192     11.2683054    90885.    110.03  0.000000                                   0.000558  -0.000  -0.001   0.000
 193     11.2683303    90885.    110.03  0.001850  -1.000000  -0.000000  -0.000000  0.000558  -0.000   0.001  -0.000
 194     11.2735761    90928.    109.98  0.200050  -0.000000  -1.000000  -0.000000  0.000000   0.000  -0.000  -0.000
 195     11.3139561    91253.    109.58  0.006595  -0.000000   0.000000   1.000000  0.000000  -0.000  -0.000  -0.000
 196     11.3193752    91297.    109.53  0.006508   1.000000   0.000000   0.000000  0.000000  -0.000  -0.000  -0.000
 197     11.3541237    91577.    109.20  0.000000                                   0.000000   0.000  -0.000   0.000
 198     11.3656945    91671.    109.09  0.000000                                   0.000000  -0.000  -0.000   0.000
 199     11.3663464    91676.    109.08  0.000000                                   0.000000   0.000  -0.000   0.000
 200     11.3769876    91762.    108.98  0.000000                                   0.000001  -0.000   0.000  -0.000
 201     11.3823447    91805.    108.93  0.000001  -0.000000   1.000000   0.000000  0.000000  -0.000  -0.000  -0.000
 202     11.3867062    91840.    108.88  0.000000                                   0.000000  -0.000  -0.000  -0.000
 203     11.3906552    91872.    108.85  0.000000                                   0.000000  -0.000   0.000  -0.000
 204     11.3921540    91884.    108.83  0.000001  -0.000000  -1.000000  -0.000000  0.000000  -0.000   0.000  -0.000
 205     11.3973931    91926.    108.78  0.000000                                   0.000000   0.000   0.000   0.000
 206     11.4023395    91966.    108.74  0.000000                                   0.000000   0.000   0.000   0.000
 207     11.4267185    92163.    108.50  0.000000                                   0.000000   0.000   0.000  -0.000
 208     11.4309515    92197.    108.46  0.000000                                   0.000000   0.000   0.000  -0.000
 209     11.5171906    92893.    107.65  0.000000                                   0.000000   0.000  -0.000   0.000
 210     11.5283526    92983.    107.55  0.000000                                   0.000000  -0.000  -0.000  -0.000
 211     11.5322839    93014.    107.51  0.000000                                   0.000000  -0.000  -0.000  -0.000
 212     11.5562595    93208.    107.29  0.000000                                   0.000000  -0.000  -0.000  -0.000
 213     11.5870269    93456.    107.00  0.086642   0.000000  -1.000000   0.000000  0.000000   0.000   0.000   0.000
 214     11.5891415    93473.    106.98  0.006079  -0.000000  -0.000000  -1.000000  0.000000   0.000   0.000  -0.000
 215     11.5996318    93558.    106.89  0.006070  -1.000000  -0.000000   0.000000  0.000000  -0.000   0.000   0.000
 216     11.6342507    93837.    106.57  0.038238   1.000000   0.000000   0.000000  0.000000  -0.000   0.000  -0.000
 217     11.6372729    93861.    106.54  0.038209   0.000000  -0.000000  -1.000000  0.000000  -0.000   0.000  -0.000
 218     12.0347281    97067.    103.02  0.000000                                   0.000000   0.000   0.000   0.000
 219     12.0414915    97121.    102.96  0.000031   1.000000  -0.000000  -0.000000  0.000081  -0.000   0.000  -0.000
 220     12.0418698    97124.    102.96  0.000000                                   0.000081   0.000  -0.000  -0.000
 221     12.0425538    97130.    102.95  0.000035  -0.000000  -0.000000  -1.000000  0.000055   0.000   0.000   0.000
 222     12.0431145    97135.    102.95  0.000000                                   0.000055   0.000  -0.000  -0.000
 223     12.0505718    97195.    102.89  0.000034  -0.000000   0.000000  -1.000000  0.000074   0.000   0.000  -0.000
 224     12.0509875    97198.    102.88  0.000000                                   0.000074   0.000  -0.000  -0.000
 225     12.0520205    97206.    102.87  0.000034  -1.000000  -0.000000   0.000000  0.000074  -0.000   0.000   0.000
 226     12.0524382    97210.    102.87  0.000000                                   0.000074  -0.000  -0.000   0.000
 227     12.0902572    97515.    102.55  0.000000                                   0.000004  -0.000   0.000  -0.000
 228     12.0961233    97562.    102.50  0.000000                                   0.000004  -0.000  -0.000  -0.000
 229     12.0975026    97573.    102.49  0.000000                                   0.000005  -0.000   0.000  -0.000
 230     12.1022738    97612.    102.45  0.006366  -0.000000   1.000000  -0.000000  0.000005  -0.000  -0.000   0.000
 231     12.1032750    97620.    102.44  0.000000                                   0.000004  -0.000   0.000  -0.000
 232     12.1089112    97665.    102.39  0.000000                                   0.000004  -0.000  -0.000  -0.000
 233     12.1259874    97803.    102.25  0.142122  -0.000000   1.000000   0.000000  0.000000  -0.000  -0.000  -0.000
 234     12.1632187    98103.    101.93  0.000063   1.000000  -0.000000   0.000000  0.000000  -0.000   0.000   0.000
 235     12.1657202    98123.    101.91  0.000065  -0.000000   0.000000   1.000000  0.000000  -0.000   0.000  -0.000
 236     12.1884946    98307.    101.72  0.000000                                   0.000000   0.000  -0.000   0.000
 237     12.2139029    98512.    101.51  0.000000                                   0.000000  -0.000  -0.000   0.000
 238     12.2145533    98517.    101.51  0.000000                                   0.000000  -0.000  -0.000  -0.000
 239     12.4398333   100334.     99.67  0.000000                                   0.000058  -0.000   0.000  -0.000
 240     12.4398384   100334.     99.67  0.000042  -1.000000  -0.000000   0.000000  0.000058  -0.000  -0.000  -0.000
 241     12.4416339   100349.     99.65  0.000000                                   0.000056  -0.000   0.000  -0.000
 242     12.4416393   100349.     99.65  0.000044   0.000000  -0.000000   1.000000  0.000056  -0.000  -0.000  -0.000
 243     12.4456430   100381.     99.62  0.000000                                   0.000061  -0.000   0.000  -0.000
 244     12.4456484   100381.     99.62  0.000045   0.000000  -0.000000   1.000000  0.000061  -0.000  -0.000  -0.000
 245     12.4476589   100397.     99.60  0.000000                                   0.000059  -0.000   0.000  -0.000
 246     12.4476642   100397.     99.60  0.000045  -1.000000  -0.000000   0.000000  0.000059  -0.000  -0.000   0.000
 247     12.4586941   100486.     99.52  0.020306   0.000000  -1.000000  -0.000000  0.000000   0.000   0.000   0.000
 248     12.5860797   101514.     98.51  0.000000                                   0.000001  -0.000   0.000  -0.000
 249     12.5906422   101551.     98.47  0.000575  -0.000000  -1.000000  -0.000000  0.000001  -0.000   0.000   0.000
 250     12.5933887   101573.     98.45  0.000000                                   0.000001  -0.000  -0.000  -0.000
 251     12.5948084   101584.     98.44  0.000000                                   0.000001  -0.000   0.000   0.000
 252     12.5981556   101611.     98.41  0.000000                                   0.000001  -0.000  -0.000   0.000
 253     12.6021597   101644.     98.38  0.000000                                   0.000001  -0.000  -0.000  -0.000
 254     12.6167371   101761.     98.27  0.074636  -0.000000  -1.000000   0.000000  0.000000  -0.000   0.000  -0.000
 255     12.6374972   101929.     98.11  0.000000                                   0.000000  -0.000  -0.000  -0.000
 256     12.7003890   102436.     97.62  0.000000                                   0.000000  -0.000   0.000  -0.000
 257     12.7624636   102936.     97.15  0.000000                                   0.000066   0.000  -0.000  -0.000
 258     12.7626241   102938.     97.15  0.000001   0.000000   1.000000  -0.000000  0.000066   0.000   0.000   0.000
 259     12.7668708   102972.     97.11  0.000000                                   0.000066   0.000  -0.000  -0.000
 260     12.7670305   102973.     97.11  0.000000                                   0.000066   0.000   0.000   0.000
 261     12.8284783   103469.     96.65  0.000201  -0.000000   0.000000   1.000000  0.000000   0.000  -0.000   0.000
 262     12.8349407   103521.     96.60  0.000213  -1.000000   0.000000  -0.000000  0.000000   0.000  -0.000   0.000
 263     12.8805696   103889.     96.26  0.000000                                   0.000000   0.000   0.000  -0.000
 264     12.8863523   103936.     96.21  0.000000                                   0.000000   0.000   0.000  -0.000
 265     12.9691504   104604.     95.60  0.000298  -1.000000   0.000000  -0.000000  0.000000   0.000   0.000  -0.000
 266     12.9713266   104621.     95.58  0.000294   0.000000  -0.000000  -1.000000  0.000000  -0.000   0.000  -0.000
 267     13.0168043   104988.     95.25  0.000000                                   0.000000  -0.000  -0.000  -0.000
 268     13.0192449   105008.     95.23  0.000000                                   0.000000  -0.000  -0.000  -0.000
 269     13.1144110   105775.     94.54  0.005960   0.000000  -0.000000   1.000000  0.000000  -0.000   0.000   0.000
 270     13.1245928   105857.     94.47  0.005950  -1.000000   0.000000   0.000000  0.000000  -0.000   0.000  -0.000
 271     13.1298011   105899.     94.43  0.000000                                   0.000001   0.000   0.000  -0.000
 272     13.1377471   105963.     94.37  0.000000                                   0.000001   0.000   0.000  -0.000
 273     13.1692556   106217.     94.15  0.000003  -0.000000  -1.000000  -0.000000  0.000001   0.000  -0.000  -0.000
 274     13.1770872   106281.     94.09  0.000000                                   0.000001  -0.000  -0.000   0.000
 275     13.2638975   106981.     93.47  0.000000   1.000000   0.000000  -0.000000  0.000389   0.000   0.000  -0.000
 276     13.2639088   106981.     93.47  0.000000                                   0.000389   0.000  -0.000  -0.000
 277     13.2656734   106995.     93.46  0.000000   0.000000  -0.000000   1.000000  0.000381  -0.000   0.000   0.000
 278     13.2656848   106995.     93.46  0.000000                                   0.000381  -0.000  -0.000   0.000
 279     13.2696901   107028.     93.43  0.000000   0.000000  -0.000000   1.000000  0.000388  -0.000   0.000  -0.000
 280     13.2697015   107028.     93.43  0.000000                                   0.000388  -0.000  -0.000  -0.000
 281     13.2714852   107042.     93.42  0.000000  -1.000000  -0.000000   0.000000  0.000388  -0.000   0.000   0.000
 282     13.2714966   107042.     93.42  0.000000                                   0.000388  -0.000  -0.000  -0.000
 283     13.2845483   107147.     93.33  0.029902  -0.000000   1.000000  -0.000000  0.000000   0.000   0.000   0.000
 284     13.3603198   107759.     92.80  0.000000                                   0.000000   0.000  -0.000   0.000
 285     13.3717618   107851.     92.72  0.000000                                   0.000000  -0.000  -0.000  -0.000
 286     13.4188581   108231.     92.40  0.000000                                   0.000004  -0.000   0.000  -0.000
 287     13.4205991   108245.     92.38  0.000000                                   0.000004   0.000  -0.000  -0.000
 288     13.4217009   108254.     92.38  0.002498  -0.000000   1.000000   0.000000  0.000007  -0.000   0.000  -0.000
 289     13.4228048   108262.     92.37  0.000000                                   0.000006  -0.000  -0.000  -0.000
 290     13.4271456   108298.     92.34  0.006916   0.000000  -1.000000   0.000000  0.000013   0.000   0.000   0.000
 291     13.4271868   108298.     92.34  0.000000                                   0.000004  -0.000   0.000  -0.000
 292     13.4276840   108302.     92.33  0.000000                                   0.000013   0.000  -0.000  -0.000
 293     13.4289311   108312.     92.33  0.000000                                   0.000004  -0.000  -0.000   0.000
 294     13.4786030   108713.     91.99  0.019147   0.000000  -1.000000  -0.000000  0.000000   0.000   0.000  -0.000
 295     13.6499596   110095.     90.83  0.000000                                   0.000000   0.000  -0.000   0.000
 296     13.8588943   111780.     89.46  0.000142  -1.000000   0.000000  -0.000000  0.000001  -0.000   0.000  -0.000
 297     13.8608346   111795.     89.45  0.000142   0.000000  -0.000000  -1.000000  0.000001  -0.000   0.000  -0.000
 298     13.8764334   111921.     89.35  0.000000                                   0.000001  -0.000  -0.000  -0.000
 299     13.8779869   111934.     89.34  0.000000                                   0.000001  -0.000  -0.000   0.000
 300     14.6298003   117998.     84.75  0.000000                                   0.000044  -0.000   0.000  -0.000
 301     14.6298551   117998.     84.75  0.000000                                   0.000044  -0.000  -0.000  -0.000
 302     14.6353611   118042.     84.72  0.000000                                   0.000045  -0.000   0.000  -0.000
 303     14.6354160   118043.     84.71  0.000000                                   0.000045  -0.000  -0.000  -0.000
 304     14.7655717   119093.     83.97  0.000000                                   0.000001  -0.000   0.000   0.000
 305     14.7691246   119121.     83.95  0.000505   0.000000   0.000000  -1.000000  0.000001  -0.000  -0.000  -0.000
 306     14.7719025   119144.     83.93  0.000000                                   0.000001  -0.000   0.000   0.000
 307     14.7753740   119172.     83.91  0.000502  -1.000000  -0.000000  -0.000000  0.000001  -0.000  -0.000  -0.000
 308     15.1034948   121818.     82.09  0.000000                                   0.000000  -0.000   0.000  -0.000
 309     15.2504070   123003.     81.30  0.013328  -0.000000  -1.000000   0.000000  0.000000  -0.000  -0.000  -0.000
 
 Polarizability (au  ) xx=  198.91 xy=   -0.00 yy= 1002.33 xz=    0.00 yz=    0.00 zz=  198.84
 Polarizability (A**3) xx=   29.48 xy=   -0.00 yy=  148.53 xz=    0.00 yz=    0.00 zz=   29.47
 ***********************************
 ***********************************
 CI Matrix
[...]
    Config     256   0.12993724  0.01688369
    Config     266  -0.58468844  0.34186057
 Total coeff printed             0.99854149
  
State  270 13.1246     CI coeff  CI percent
    Config      65  -0.11839249  0.01401678
    Config      71  -0.60395022  0.36475586
    Config     168   0.38228203  0.14613955
    Config     247   0.32677248  0.10678025
    Config     253  -0.09588872  0.00919465
    Config     270  -0.12952755  0.01677739
    Config     280   0.58385443  0.34088599
 Total coeff printed             0.99855047
  
State  271 13.1298     CI coeff  CI percent
    Config      93  -0.27001534  0.07290828
    Config      99  -0.76695420  0.58821875
    Config     126  -0.57130851  0.32639341
    Config     177   0.04851893  0.00235409
    Config     196  -0.08093224  0.00655003
 Total coeff printed             0.99642456
  
State  272 13.1377     CI coeff  CI percent
    Config     107   0.27083147  0.07334969
    Config     113   0.76624568  0.58713244
    Config     140   0.57175785  0.32690704
    Config     205  -0.04871504  0.00237315
    Config     224   0.08147200  0.00663769
 Total coeff printed             0.99640000
  
State  273 13.1693     CI coeff  CI percent
    Config      98  -0.53304550  0.28413751
    Config     121  -0.27705571  0.07675987
    Config     127  -0.79193077  0.62715434
    Config     182   0.05482327  0.00300559
    Config     191  -0.05277999  0.00278573
    Config     197  -0.06700347  0.00448947
 Total coeff printed             0.99833250
  
State  274 13.1771     CI coeff  CI percent
    Config     112   0.53367678  0.28481091
    Config     135   0.27789550  0.07722591
    Config     141   0.79119834  0.62599481
    Config     210  -0.05516400  0.00304307
    Config     219   0.05318190  0.00282831
    Config     225   0.06780343  0.00459730
 Total coeff printed             0.99850032
  
State  275 13.2639     CI coeff  CI percent
    Config      96   0.05044487  0.00254468
    Config     122   0.05849696  0.00342189
    Config     175  -0.29289177  0.08578559
    Config     180   0.70269935  0.49378638
    Config     187  -0.08244936  0.00679790
    Config     192  -0.63828711  0.40741043
 Total coeff printed             0.99974688
  
State  276 13.2639     CI coeff  CI percent
    Config      94  -0.04131025  0.00170654
    Config     124  -0.06945958  0.00482463
    Config     173  -0.08248819  0.00680430
    Config     178  -0.63956564  0.40904421
    Config     189  -0.29244112  0.08552181
    Config     194   0.70112306  0.49157354
 Total coeff printed             0.99947503
  
State  277 13.2657     CI coeff  CI percent
    Config      97  -0.05046499  0.00254672
    Config     123  -0.05853136  0.00342592
    Config     176   0.29276549  0.08571163
    Config     181  -0.70281320  0.49394639
    Config     188   0.08237216  0.00678517
    Config     193   0.63822537  0.40733162
 Total coeff printed             0.99974745
  
State  278 13.2657     CI coeff  CI percent
    Config      95   0.04134402  0.00170933
    Config     125   0.06948067  0.00482756
    Config     174   0.08241071  0.00679152
    Config     179   0.63950506  0.40896672
    Config     190   0.29231526  0.08544821
    Config     195  -0.70123679  0.49173304
 Total coeff printed             0.99947638
  
State  279 13.2697     CI coeff  CI percent
    Config     110  -0.05087652  0.00258842
    Config     136  -0.05914925  0.00349863
    Config     203   0.29289058  0.08578489
    Config     208  -0.70267035  0.49374562
    Config     215   0.08244463  0.00679712
    Config     220   0.63822156  0.40732676
 Total coeff printed             0.99974145
  
State  280 13.2697     CI coeff  CI percent
    Config     108   0.04169908  0.00173881
    Config     138   0.07018104  0.00492538
    Config     201   0.08248576  0.00680390
    Config     206   0.63953442  0.40900427
    Config     217   0.29242659  0.08551331
    Config     222  -0.70105406  0.49147679
 Total coeff printed             0.99946246
  
State  281 13.2715     CI coeff  CI percent
    Config     111   0.05090053  0.00259086
    Config     137   0.05914500  0.00349813
    Config     204  -0.29270497  0.08567620
    Config     209   0.70286541  0.49401979
    Config     216  -0.08240277  0.00679022
    Config     221  -0.63809604  0.40716656
 Total coeff printed             0.99974176
  
State  282 13.2715     CI coeff  CI percent
    Config     109   0.04169746  0.00173868
    Config     139   0.07021098  0.00492958
    Config     202   0.08244383  0.00679698
    Config     207   0.63940892  0.40884376
    Config     218   0.29224123  0.08540494
    Config     223  -0.70124830  0.49174917
 Total coeff printed             0.99946312
  
State  283 13.2845     CI coeff  CI percent
    Config      32   0.04756890  0.00226280
    Config      42   0.05283712  0.00279176
    Config      79  -0.30212045  0.09127677
    Config      85   0.20890499  0.04364129
    Config     235  -0.05431207  0.00294980
    Config     248  -0.05463774  0.00298528
    Config     284   0.19378646  0.03755319
    Config     294  -0.61276911  0.37548599
    Config     297   0.04029985  0.00162408
    Config     303  -0.56158403  0.31537662
    Config     309   0.34405361  0.11837289
 Total coeff printed             0.99432047
  
State  284 13.3603     CI coeff  CI percent
    Config      56   0.38661062  0.14946777
    Config     149  -0.16466218  0.02711363
    Config     155  -0.76668638  0.58780801
    Config     238  -0.12711728  0.01615880
    Config     261  -0.26699159  0.07128451
    Config     267  -0.38236091  0.14619987
 Total coeff printed             0.99803260
  
State  285 13.3718     CI coeff  CI percent
    Config      70   0.38666847  0.14951251
    Config     163  -0.16438474  0.02702234
    Config     169  -0.76514506  0.58544696
    Config     252  -0.12609340  0.01589955
    Config     275  -0.26708492  0.07133435
    Config     281  -0.38577900  0.14882544
 Total coeff printed             0.99804115
  
State  286 13.4189     CI coeff  CI percent
    Config      52  -0.09577808  0.00917344
    Config     147  -0.11831124  0.01399755
    Config     152   0.33790082  0.11417696
    Config     229  -0.09783994  0.00957265
    Config     234  -0.63901630  0.40834183
    Config     259   0.30048373  0.09029047
    Config     264  -0.59531823  0.35440380
 Total coeff printed             0.99995670
  
State  287 13.4206     CI coeff  CI percent
    Config      54  -0.12890189  0.01661570
    Config     150   0.29058190  0.08443784
    Config     231   0.31243476  0.09761548
    Config     236  -0.67314945  0.45313018
    Config     257  -0.10018181  0.01003639
    Config     262  -0.57997255  0.33636816
 Total coeff printed             0.99820375
  
State  288 13.4217     CI coeff  CI percent
    Config      53   0.08959889  0.00802796
    Config      85   0.08444909  0.00713165
    Config     148   0.11398029  0.01299151
    Config     153  -0.32216920  0.10379299
    Config     166   0.09121272  0.00831976
    Config     230   0.09293955  0.00863776
    Config     235   0.61280583  0.37553098
    Config     248  -0.16795317  0.02820827
    Config     260  -0.28603587  0.08181652
    Config     265   0.57327370  0.32864273
    Config     273   0.08083194  0.00653380
    Config     278  -0.15424068  0.02379019
    Config     303  -0.04887670  0.00238893
 Total coeff printed             0.99581305
  
State  289 13.4228     CI coeff  CI percent
    Config      55  -0.12860797  0.01654001
    Config     151   0.28890191  0.08346431
    Config     232   0.31041193  0.09635557
    Config     237  -0.67271181  0.45254118
    Config     250   0.05417552  0.00293499
    Config     258  -0.09973141  0.00994635
    Config     263  -0.57662591  0.33249744
    Config     276   0.04903182  0.00240412
 Total coeff printed             0.99668398
  
State  290 13.4271     CI coeff  CI percent
    Config      42   0.05654805  0.00319768
    Config      66  -0.08794183  0.00773377
    Config      85  -0.15989786  0.02556733
    Config     153   0.07773709  0.00604305
    Config     161  -0.11417043  0.01303489
    Config     166   0.31989151  0.10233058
    Config     235  -0.15276381  0.02333678
    Config     243  -0.09174097  0.00841641
    Config     248  -0.60744946  0.36899485
    Config     260   0.06879280  0.00473245
    Config     265  -0.14537063  0.02113262
    Config     273   0.28243333  0.07976858
    Config     278  -0.56807713  0.32271163
    Config     303   0.08833147  0.00780245
    Config     309   0.05228469  0.00273369
 Total coeff printed             0.99753675
  
State  291 13.4272     CI coeff  CI percent
    Config      67  -0.09629309  0.00927236
    Config     162  -0.11910586  0.01418621
    Config     167   0.33997569  0.11558347
    Config     244  -0.09790666  0.00958571
    Config     249  -0.63880832  0.40807607
    Config     274   0.30024961  0.09014983
    Config     279  -0.59422470  0.35310299
 Total coeff printed             0.99995663
  
State  292 13.4277     CI coeff  CI percent
    Config      68   0.12915332  0.01668058
    Config     164  -0.29058451  0.08443936
    Config     237   0.05705852  0.00325567
    Config     245  -0.31057279  0.09645546
    Config     250   0.67240838  0.45213303
    Config     263   0.04632820  0.00214630
    Config     271   0.09989228  0.00997847
    Config     276   0.57580123  0.33154705
 Total coeff printed             0.99663592
  
State  293 13.4289     CI coeff  CI percent
    Config      69  -0.12962308  0.01680214
    Config     165   0.29236458  0.08547705
    Config     246   0.31236666  0.09757293
    Config     251  -0.67303036  0.45296987
    Config     272  -0.10029979  0.01006005
    Config     277  -0.57905210  0.33530134
 Total coeff printed             0.99818337
  
State  294 13.4786     CI coeff  CI percent
    Config      29   0.04355732  0.00189724
    Config      42  -0.31514426  0.09931591
    Config      79   0.15493412  0.02400458
    Config      85   0.78436587  0.61522982
    Config     235  -0.09509441  0.00904295
    Config     248  -0.10394316  0.01080418
    Config     265  -0.10362669  0.01073849
    Config     278  -0.11167406  0.01247110
    Config     294   0.18172918  0.03302549
    Config     297   0.04185295  0.00175167
    Config     303  -0.21970992  0.04827245
    Config     309  -0.35189726  0.12383168
 Total coeff printed             0.99038555
  
State  295 13.6500     CI coeff  CI percent
    Config      28   0.04429864  0.00196237
    Config      37   0.04217844  0.00177902
    Config      43  -0.27278117  0.07440957
    Config      74  -0.06576241  0.00432469
    Config      84   0.11973841  0.01433729
    Config     237   0.06199170  0.00384297
    Config     250   0.06266296  0.00392665
    Config     263  -0.04462435  0.00199133
    Config     276  -0.04568585  0.00208720
    Config     289  -0.33739549  0.11383572
    Config     295   0.43722705  0.19116750
    Config     298   0.19816167  0.03926805
    Config     308  -0.73262783  0.53674353
 Total coeff printed             0.98967588
  
State  296 13.8589     CI coeff  CI percent
    Config      40   0.05164873  0.00266759
    Config      80  -0.20827563  0.04337874
    Config     287   0.33378236  0.11141066
    Config     292  -0.57821939  0.33433766
    Config     299  -0.18132070  0.03287720
    Config     304  -0.68939852  0.47527031
 Total coeff printed             0.99994216
  
State  297 13.8608     CI coeff  CI percent
    Config      41   0.05156730  0.00265919
    Config      81  -0.20805761  0.04328797
    Config     288   0.33342113  0.11116965
    Config     293  -0.57851611  0.33468089
    Config     300  -0.18127336  0.03286003
    Config     305  -0.68940979  0.47528587
 Total coeff printed             0.99994359
  
State  298 13.8764     CI coeff  CI percent
    Config      77  -0.06783156  0.00460112
    Config      82   0.24560485  0.06032174
    Config     285   0.10648701  0.01133948
    Config     290   0.58840522  0.34622071
    Config     301  -0.40179376  0.16143823
    Config     306   0.64452193  0.41540852
 Total coeff printed             0.99932980
  
State  299 13.8780     CI coeff  CI percent
    Config      78  -0.06782762  0.00460059
    Config      83   0.24592659  0.06047989
    Config     286   0.10647738  0.01133743
    Config     291   0.58859697  0.34644639
    Config     302  -0.40161542  0.16129495
    Config     307   0.64434045  0.41517462
 Total coeff printed             0.99933387
  
State  300 14.6298     CI coeff  CI percent
    Config      99  -0.06511493  0.00423995
    Config     126  -0.04719142  0.00222703
    Config     177  -0.07583258  0.00575058
    Config     183  -0.86773937  0.75297162
    Config     196   0.48425605  0.23450393
 Total coeff printed             0.99969311
  
State  301 14.6299     CI coeff  CI percent
    Config     127  -0.08837018  0.00780929
    Config     182  -0.48534374  0.23555854
    Config     191   0.07582202  0.00574898
    Config     197   0.86569895  0.74943467
 Total coeff printed             0.99855148
  
State  302 14.6354     CI coeff  CI percent
    Config     113  -0.06569215  0.00431546
    Config     140  -0.04774876  0.00227994
    Config     205  -0.07577920  0.00574249
    Config     211  -0.86747690  0.75251617
    Config     224   0.48460201  0.23483911
 Total coeff printed             0.99969317
  
State  303 14.6354     CI coeff  CI percent
    Config     141   0.08930566  0.00797550
    Config     210   0.48571925  0.23592319
    Config     219  -0.07576764  0.00574074
    Config     225  -0.86538372  0.74888898
 Total coeff printed             0.99852840
  
State  304 14.7656     CI coeff  CI percent
    Config      56   0.08362850  0.00699373
    Config     155  -0.44060044  0.19412875
    Config     238   0.48625183  0.23644084
    Config     261   0.09768448  0.00954226
    Config     267   0.74316526  0.55229461
 Total coeff printed             0.99940018
  
State  305 14.7691     CI coeff  CI percent
    Config      57  -0.18014127  0.03245088
    Config     154   0.24084016  0.05800398
    Config     233  -0.09185116  0.00843664
    Config     239  -0.84621752  0.71608409
    Config     266  -0.42959213  0.18454939
 Total coeff printed             0.99952498
  
State  306 14.7719     CI coeff  CI percent
    Config      70   0.08418693  0.00708744
    Config     169  -0.44311280  0.19634895
    Config     252   0.48629784  0.23648559
    Config     275   0.09793302  0.00959088
    Config     281   0.74154064  0.54988252
 Total coeff printed             0.99939538
  
State  307 14.7754     CI coeff  CI percent
    Config      71  -0.18114728  0.03281434
    Config     168   0.24254257  0.05882690
    Config     247  -0.09204140  0.00847162
    Config     253  -0.84586894  0.71549427
    Config     280  -0.42885700  0.18391832
 Total coeff printed             0.99952544
  
State  308 15.1035     CI coeff  CI percent
    Config      43  -0.11020283  0.01214466
    Config      84   0.20733226  0.04298667
    Config     289   0.11557033  0.01335650
    Config     295   0.82014422  0.67263654
    Config     308   0.50710994  0.25716049
 Total coeff printed             0.99828486
  
State  309 15.2504     CI coeff  CI percent
    Config      85  -0.31028843  0.09627891
    Config     294  -0.44378377  0.19694403
    Config     303  -0.14219030  0.02021808
    Config     309  -0.82739229  0.68457800
 Total coeff printed             0.99801902
  

 -------------------------------------------------------------------------------
 INDO CIS
 Ag4



     NO PARAMETERS MARKED FOR OPTIMIZATION, SO 1SCF WAS USED  
     SCF FIELD WAS ACHIEVED                                   


                              INDO CALCULATION
                                                       MOPAC2016 (Version: 20.173L)
                                                       Wed Dec  1 19:10:34 2021




          FINAL HEAT OF FORMATION =     -53722.46288 KCAL/MOL = -224774.78470 KJ/MOL


          TOTAL ENERGY            =      -2341.44077 EV
          ELECTRONIC ENERGY       =      -4623.85013 EV  POINT GROUP:     D*h 
          CORE-CORE REPULSION     =       2282.40936 EV
          COSMO AREA              =        149.42 SQUARE ANGSTROMS
          COSMO VOLUME            =        125.76 CUBIC ANGSTROMS

          IONIZATION POTENTIAL    =          6.916361 EV
          HOMO LUMO ENERGIES (EV) =         -6.916 -2.943
          NO. OF FILLED LEVELS    =         22
          MOLECULAR WEIGHT        =        431.4720

          MOLECULAR DIMENSIONS (Angstroms)

            Atom       Atom       Distance
           Ag     4   Ag     1     8.13000
           Ag     4   Ag     1     0.00000
           Ag     1   Ag     2     0.00000


          SCF CALCULATIONS        =          1
 
          WALL-CLOCK TIME         =          0.523 SECONDS
          COMPUTATION TIME        =          6.826 SECONDS




   ATOM   CHEMICAL          X               Y               Z
  NUMBER   SYMBOL      (ANGSTROMS)     (ANGSTROMS)     (ANGSTROMS)
 
     1      Ag          0.00000000     -2.71000000      0.00000000   
     2      Ag          0.00000000      0.00000000      0.00000000   
     3      Ag          0.00000000      2.71000000      0.00000000   
     4      Ag          0.00000000      5.42000000      0.00000000   

                             CARTESIAN COORDINATES

   1   Ag        0.000000000    -2.710000000     0.000000000
   2   Ag        0.000000000     0.000000000     0.000000000
   3   Ag        0.000000000     2.710000000     0.000000000
   4   Ag        0.000000000     5.420000000     0.000000000


           Empirical Formula: Ag4  =     4 atoms



      MOLECULAR POINT GROUP   :   D*h 


                  EIGENVALUES  
 -14.09580 -13.42307 -13.23759 -13.22842 -13.10756 -13.10045 -12.85724 -12.85571
 -12.85139 -12.84988 -12.56778 -12.55879 -12.46744 -12.45842 -12.36407 -12.35502
 -12.32489 -11.88240 -11.87137 -11.25274  -7.94998  -6.91636  -2.94253  -1.21293
   0.32577   1.08291   1.08477   1.55919   1.56069   1.61328   2.20461   2.20652
   2.67317   2.67547   3.01409   4.32871


              NET ATOMIC CHARGES AND DIPOLE CONTRIBUTIONS

  ATOM NO.   TYPE          CHARGE      No. of ELECS.   s-Pop       p-Pop       d-Pop       
    1         Ag           0.071374       10.9286     0.88377     0.08734     9.95751
    2         Ag          -0.071374       11.0714     1.02560     0.13537     9.91040
    3         Ag          -0.071374       11.0714     1.02560     0.13537     9.91040
    4         Ag           0.071374       10.9286     0.88377     0.08734     9.95751
 DIPOLE           X         Y         Z       TOTAL
 POINT-CHG.     0.000     0.000     0.000     0.000
 HYBRID        -0.000     0.000    -0.000     0.000
 SUM           -0.000     0.000    -0.000     0.000


          ATOMIC ORBITAL ELECTRON POPULATIONS

     Atom    s        px        py        pz      x^2-y^2     xz        z^2       yz        xy
    1 Ag   0.88377   0.01251   0.06230   0.01253   1.99486   1.98457   1.98905   2.00000   1.98904
    2 Ag   1.02560   0.02255   0.09024   0.02257   1.98965   1.96899   1.97590   2.00000   1.97586
    3 Ag   1.02560   0.02255   0.09024   0.02257   1.98965   1.96899   1.97590   2.00000   1.97586
    4 Ag   0.88377   0.01251   0.06230   0.01253   1.99486   1.98457   1.98905   2.00000   1.98904

 **********************
 *                    *
 * JOB ENDED NORMALLY *
 *                    *
 **********************



 TOTAL JOB TIME:             0.62 SECONDS

 == MOPAC DONE ==


          MOPAC Job: "ag.mop" ended normally on Dec  1, 2021, at 19:10.

rm: cannot remove ag.cim: No such file or directory
rm: cannot remove ag.end: No such file or directory
rm: cannot remove ag.log: No such file or directory
rm: cannot remove ag.temp: No such file or directory
rm: cannot remove ag.ple: No such file or directory
rm: cannot remove ag.sts: No such file or directory
